
                                 *****************
                                 * O   R   C   A *
                                 *****************

           --- An Ab Initio, DFT and Semiempirical electronic structure package ---

                  #######################################################
                  #                        -***-                        #
                  #  Department of molecular theory and spectroscopy    #
                  #              Directorship: Frank Neese              #
                  # Max Planck Institute for Chemical Energy Conversion #
                  #                  D-45470 Muelheim/Ruhr              #
                  #                       Germany                       #
                  #                                                     #
                  #                  All rights reserved                #
                  #                        -***-                        #
                  #######################################################


                         Program Version 3.0.3 - RELEASE   -


 With contributions from (in alphabetic order):
   Ute Becker             : Parallelization
   Dmytro Bykov           : SCF Hessian
   Dmitry Ganyushin       : Spin-Orbit,Spin-Spin,Magnetic field MRCI
   Andreas Hansen         : Spin unrestricted coupled pair/coupled cluster methods
   Dimitrios Liakos       : Extrapolation schemes; parallel MDCI
   Robert Izsak           : Overlap fitted RIJCOSX, COSX-SCS-MP3
   Christian Kollmar      : KDIIS, OOCD, Brueckner-CCSD(T), CCSD density
   Simone Kossmann        : Meta GGA functionals, TD-DFT gradient, OOMP2, MP2 Hessian
   Taras Petrenko         : DFT Hessian,TD-DFT gradient, ASA and ECA modules, normal mode analysis, Resonance Raman, ABS, FL, XAS/XES, NRVS
   Christoph Reimann      : Effective Core Potentials
   Michael Roemelt        : Restricted open shell CIS
   Christoph Riplinger    : Improved optimizer, TS searches, QM/MM, DLPNO-CCSD
   Barbara Sandhoefer     : DKH picture change effects
   Igor Schapiro          : Molecular dynamics
   Kantharuban Sivalingam : CASSCF convergence, NEVPT2
   Boris Wezisla          : Elementary symmetry handling
   Frank Wennmohs         : Technical directorship


 We gratefully acknowledge several colleagues who have allowed us to
 interface, adapt or use parts of their codes:
   Stefan Grimme, W. Hujo, H. Kruse, T. Risthaus : VdW corrections, initial TS optimization,
                                                   DFT functionals, gCP
   Ed Valeev                                     : LibInt (2-el integral package), F12 methods
   Garnet Chan, S. Sharma, R. Olivares           : DMRG
   Ulf Ekstrom                                   : XCFun DFT Library
   Mihaly Kallay                                 : mrcc  (arbitrary order and MRCC methods)
   Andreas Klamt, Michael Diedenhofen            : otool_cosmo (COSMO solvation model)
   Frank Weinhold                                : gennbo (NPA and NBO analysis)
   Christopher J. Cramer and Donald G. Truhlar   : smd solvation model


 Your calculation uses the libint2 library for the computation of 2-el integrals
 For citations please refer to: http://libint.valeyev.net

 This ORCA versions uses:
   CBLAS   interface :  Fast vector & matrix operations
   LAPACKE interface :  Fast linear algebra routines
   SCALAPACK package :  Parallel linear algebra routines


Your calculation utilizes the basis: Ahlrichs-TZV
Cite in your paper:
H - Kr: A. Schaefer, H. Horn and R. Ahlrichs, J. Chem. Phys. 97, 2571 (1992).

The def2-TZV basis will be loaded
Cite in your paper:
 	F. Weigend, R. Ahlrichs, Phys. Chem. Chem. Phys. 2005, 7, 3297.

================================================================================
                                        WARNINGS
                       Please study these warnings very carefully!
================================================================================
Now building the actual basis set
WARNING: Geometry optimizations can change the point-group symmetry!

WARNING: Geometry Optimization
  ===> : Switching off AutoStart
         For restart on a previous wavefunction, please use MOREAD


INFO   : the flag for use of LIBINT has been found!

================================================================================
                                       INPUT FILE
================================================================================
NAME = 0059_+.inp
|  1> ! NORI PBE0 def2-TZVP UseSym TightOPT Freq TightSCF Grid3 FinalGrid5 XYZFile
|  2> % pal
|  3>     nprocs 8
|  4> end
|  5> %method
|  6>     SymThresh 5.0e-2
|  7> end
|  8> % geom 
|  9>     MaxIter 10
| 10> end 
| 11> % maxcore 2000
| 12> % output
| 13>     printlevel mini
| 14>     print[ P_Basis ] 0
| 15>     print[ P_SCFInfo ] 1
| 16>     print[ P_SCFIterInfo ] 1
| 17>     print[ P_OrbEn ] 0
| 18>     print[ P_Cartesian ] 0
| 19> end
| 20> % elprop
| 21>     Dipole false
| 22> end
| 23> *xyz 1 1
| 24>  N        0.9151127562     0.1045035501     0.1119643282 
| 25>  C        2.4052599207    -0.0621128714     0.0602367800 
| 26>  C        3.0425161623     1.0384124651    -0.7654104690 
| 27>  O        4.4035939786     0.7522067925    -0.7198348013 
| 28>  H        0.4784985296    -0.6342395587     0.6672040937 
| 29>  H        0.5037831477     0.0717917827    -0.8238509346 
| 30>  H        0.6548863425     1.0006863200     0.5308851378 
| 31>  H        2.7731171887    -0.0411288526     1.0859326196 
| 32>  H        2.6109020635    -1.0413289504    -0.3720185433 
| 33>  H        2.6429187232     1.0180351092    -1.7911090752 
| 34>  H        2.8051504261     2.0210048048    -0.3286118700 
| 35>  H        4.9007407610     1.4001694085    -1.2275072659 
| 36> *
| 37> 
| 38>                          ****END OF INPUT****
================================================================================
---------------------
ASYMMETRIC UNIT IN Cs
---------------------
  #  AT     MASS              COORDS (A.U.)             BAS
   0 N   14.0070  -3.49813502   0.16299868   0.00000000   0
   1 C   12.0110  -0.81385998   1.07571246   0.00000000   0
   2 C   12.0110   1.01290275  -1.13168857   0.00000000   0
   3 O   15.9990   3.38666141   0.00000000   0.00000000   0
   4 H    1.0080  -4.74089585   1.64154879   0.00000000   0
   5 H    1.0080  -3.87470731  -0.91634342   1.55859081   0
   7 H    1.0080  -0.55636067   2.24253674  -1.67758710   0
   9 H    1.0080   0.69730012  -2.31439674   1.68258992   0
  11 H    1.0080   4.69303339  -1.26315128   0.00000000   0


                       *****************************
                       * Geometry Optimization Run *
                       *****************************

Geometry optimization settings:
Update method            Update   .... BFGS
Choice of coordinates    CoordSys .... Redundant Internals
Initial Hessian          InHess   .... Almoef's Model

Convergence Tolerances:
Energy Change            TolE     ....  1.0000e-06 Eh
Max. Gradient            TolMAXG  ....  1.0000e-04 Eh/bohr
RMS Gradient             TolRMSG  ....  3.0000e-05 Eh/bohr
Max. Displacement        TolMAXD  ....  1.0000e-03 bohr
RMS Displacement         TolRMSD  ....  6.0000e-04 bohr

------------------------------------------------------------------------------
                        ORCA OPTIMIZATION COORDINATE SETUP
------------------------------------------------------------------------------

The optimization will be done in new redundant internal coordinates
Making redundant internal coordinates   ...  (new redundants) done
Evaluating the initial hessian          ...  (Almloef) done
Evaluating the coordinates              ...  done
Calculating the B-matrix                .... done
Calculating the G-matrix                .... done
Diagonalizing the G-matrix              .... done
The first mode is                       ....   21
The number of degrees of freedom        ....   30

    -----------------------------------------------------------------
                    Redundant Internal Coordinates


    -----------------------------------------------------------------
         Definition                    Initial Value    Approx d2E/dq
    -----------------------------------------------------------------
      1. B(C   1,N   0)                  1.5003         0.373129   
      2. B(C   2,C   1)                  1.5162         0.392963   
      3. B(O   3,C   2)                  1.3916         0.556338   
      4. B(H   4,N   0)                  1.0221         0.413913   
      5. B(H   5,N   0)                  1.0228         0.412784   
      6. B(H   6,N   0)                  1.0228         0.412784   
      7. B(H   7,C   1)                  1.0899         0.360219   
      8. B(H   8,C   1)                  1.0899         0.360219   
      9. B(H   9,C   2)                  1.1011         0.345731   
     10. B(H  10,C   2)                  1.1011         0.345731   
     11. B(H  11,O   3)                  0.9616         0.516885   
     12. A(H   4,N   0,H   5)          107.5846         0.298863   
     13. A(H   5,N   0,H   6)          107.4837         0.298734   
     14. A(H   4,N   0,H   6)          107.5846         0.298863   
     15. A(C   1,N   0,H   6)          111.3596         0.326838   
     16. A(C   1,N   0,H   5)          111.3596         0.326838   
     17. A(C   1,N   0,H   4)          111.2688         0.326985   
     18. A(H   7,C   1,H   8)          109.0775         0.290870   
     19. A(C   2,C   1,H   8)          110.9002         0.327047   
     20. A(N   0,C   1,H   8)          107.5022         0.322337   
     21. A(C   2,C   1,H   7)          110.9002         0.327047   
     22. A(N   0,C   1,H   7)          107.5022         0.322337   
     23. A(N   0,C   1,C   2)          110.8307         0.364153   
     24. A(O   3,C   2,H   9)          112.4281         0.342054   
     25. A(C   1,C   2,H   9)          109.9499         0.324845   
     26. A(H   9,C   2,H  10)          107.9278         0.287153   
     27. A(O   3,C   2,H  10)          112.4281         0.342054   
     28. A(C   1,C   2,H  10)          109.9499         0.324845   
     29. A(C   1,C   2,O   3)          104.1204         0.390190   
     30. A(C   2,O   3,H  11)          110.4742         0.362939   
     31. D(H   8,C   1,N   0,H   4)     58.6545         0.012764   
     32. D(C   2,C   1,N   0,H   5)     59.9778         0.012764   
     33. D(H   7,C   1,N   0,H   4)    -58.6545         0.012764   
     34. D(H   8,C   1,N   0,H   5)    -61.3677         0.012764   
     35. D(C   2,C   1,N   0,H   6)    -59.9778         0.012764   
     36. D(H   7,C   1,N   0,H   6)     61.3677         0.012764   
     37. D(C   2,C   1,N   0,H   4)    180.0000         0.012764   
     38. D(H   8,C   1,N   0,H   6)    178.6767         0.012764   
     39. D(H   7,C   1,N   0,H   5)   -178.6767         0.012764   
     40. D(H   9,C   2,C   1,H   7)   -178.6697         0.012269   
     41. D(H   9,C   2,C   1,N   0)    -59.3469         0.012269   
     42. D(O   3,C   2,C   1,H   8)    -60.6772         0.012269   
     43. D(O   3,C   2,C   1,H   7)     60.6772         0.012269   
     44. D(H   9,C   2,C   1,H   8)     59.9758         0.012269   
     45. D(O   3,C   2,C   1,N   0)    180.0000         0.012269   
     46. D(H  10,C   2,C   1,H   8)    178.6697         0.012269   
     47. D(H  10,C   2,C   1,H   7)    -59.9758         0.012269   
     48. D(H  10,C   2,C   1,N   0)     59.3469         0.012269   
     49. D(H  11,O   3,C   2,H  10)    -61.0236         0.024700   
     50. D(H  11,O   3,C   2,H   9)     61.0236         0.024700   
     51. D(H  11,O   3,C   2,C   1)    180.0000         0.024700   
    -----------------------------------------------------------------

Number of atoms                         .... 12
Number of degrees of freedom            .... 51

         *************************************************************
         *                GEOMETRY OPTIMIZATION CYCLE   1            *
         *************************************************************


           ************************************************************
           *        Program running with 8 parallel MPI-processes     *
           *              working on a common directory               *
           ************************************************************
           ************************************************************
           *              Shut down parallel processing               *
           ************************************************************


           ************************************************************
           *        Program running with 8 parallel MPI-processes     *
           *              working on a common directory               *
           ************************************************************
------------
SCF SETTINGS
------------
Hamiltonian:
 Density Functional     Method          .... DFT(GTOs)
 Exchange Functional    Exchange        .... PBE
   PBE kappa parameter  XKappa          ....  0.804000
 Correlation Functional Correlation     .... PBE
 LDA part of GGA corr.  LDAOpt          .... PW91-LDA
 Gradients option       PostSCFGGA      .... off
 Hybrid DFT is turned on
   Fraction HF Exchange ScalHFX         ....  0.250000
   Scaling of DF-GGA-X  ScalDFX         ....  0.750000
   Scaling of DF-GGA-C  ScalDFC         ....  1.000000
   Scaling of DF-LDA-C  ScalLDAC        ....  1.000000
   Perturbative correction              ....  0.000000
   NL short-range parameter             ....  6.900000


General Settings:
 Integral files         IntName         .... 0059_+
 Hartree-Fock type      HFTyp           .... RHF
 Total Charge           Charge          ....    1
 Multiplicity           Mult            ....    1
 Number of Electrons    NEL             ....   34
 Basis Dimension        Dim             ....  172
 Nuclear Repulsion      ENuc            ....    140.2352234278 Eh

 Symmetry handling      UseSym         .... ON
 Point group                           .... Cs
 Used point group                      .... Cs
 Number of irreps                      .... 2
   Irrep   A' has  112 symmetry adapted basis functions (ofs=   0)
   Irrep   A" has   60 symmetry adapted basis functions (ofs= 112)

Convergence Acceleration:
 DIIS                   CNVDIIS         .... on
   Start iteration      DIISMaxIt       ....    12
   Startup error        DIISStart       ....  0.200000
   # of expansion vecs  DIISMaxEq       ....     5
   Bias factor          DIISBfac        ....   1.050
   Max. coefficient     DIISMaxC        ....  10.000
 Newton-Raphson         CNVNR           .... off
 SOSCF                  CNVSOSCF        .... on
   Start iteration      SOSCFMaxIt      ....   150
   Startup grad/error   SOSCFStart      ....  0.003300
 Level Shifting         CNVShift        .... on
   Level shift para.    LevelShift      ....    0.2500
   Turn off err/grad.   ShiftErr        ....    0.0010
 Zerner damping         CNVZerner       .... off
 Static damping         CNVDamp         .... on
   Fraction old density DampFac         ....    0.7000
   Max. Damping (<1)    DampMax         ....    0.9800
   Min. Damping (>=0)   DampMin         ....    0.0000
   Turn off err/grad.   DampErr         ....    0.1000
 Fernandez-Rico         CNVRico         .... off

SCF Procedure:
 Maximum # iterations   MaxIter         ....   125
 SCF integral mode      SCFMode         .... Direct
   Integral package                     .... LIBINT
 Reset frequeny         DirectResetFreq ....    20
 Integral Threshold     Thresh          ....  2.500e-11 Eh
 Primitive CutOff       TCut            ....  2.500e-12 Eh

Convergence Tolerance:
 Convergence Check Mode ConvCheckMode   .... Total+1el-Energy
 Energy Change          TolE            ....  1.000e-08 Eh
 1-El. energy change                    ....  1.000e-05 Eh
 Orbital Gradient       TolG            ....  1.000e-05
 Orbital Rotation angle TolX            ....  1.000e-05
 DIIS Error             TolErr          ....  5.000e-07


Diagonalization of the overlap matrix:
Smallest eigenvalue                        ... 4.044e-04
Time for diagonalization                   ...    0.013 sec
Threshold for overlap eigenvalues          ... 1.000e-08
Number of eigenvalues below threshold      ... 0
Time for construction of square roots      ...    0.003 sec
Producing symmetrization matrix            ... done (   0.001 sec)
Total time needed                          ...    0.017 sec

-------------------
DFT GRID GENERATION
-------------------

General Integration Accuracy     IntAcc      ...  4.340
Radial Grid Type                 RadialGrid  ... Gauss-Chebyshev
Angular Grid (max. acc.)         AngularGrid ... Lebedev-194
Angular grid pruning method      GridPruning ... 3 (G Style)
Weight generation scheme         WeightScheme... Becke
Basis function cutoff            BFCut       ...    1.0000e-11
Integration weight cutoff        WCut        ...    1.0000e-14
Grids for H and He will be reduced by one unit

# of grid points (after initial pruning)     ...  25480 (   0.0 sec)
# of grid points (after weights+screening)   ...  23978 (   0.0 sec)
nearest neighbour list constructed           ...    0.0 sec
Grid point re-assignment to atoms done       ...    0.0 sec
Grid point division into batches done        ...    0.0 sec
Reduced shell lists constructed in    0.1 sec

Total number of grid points                  ...    23978
Total number of batches                      ...      380
Average number of points per batch           ...       63
Average number of grid points per atom       ...     1998
Average number of shells per batch           ...    65.76 (86.52%)
Average number of basis functions per batch  ...   151.06 (87.83%)
Average number of large shells per batch     ...    57.63 (87.65%)
Average number of large basis fcns per batch ...   133.18 (88.17%)
Maximum spatial batch extension              ...   1.85,  2.09,  1.76 au
Average spatial batch extension              ...   0.13,  0.14,  0.14 au

Time for grid setup =    0.102 sec

Loading Hartree-Fock densities                     ... done
Calculating cut-offs                               ... done
Setting up the integral package                    ... done
Initializing the effective Hamiltonian             ... done
Starting the Coulomb interaction                   ... done (   0.0 sec)
Reading the grid                                   ... done
Mapping shells                                     ... done
Starting the XC term evaluation                    ... done (   0.1 sec)
  promolecular density results
     # of electrons  =     34.995037672
     EX              =    -27.331771713
     EC              =     -1.147675809
     EX+EC           =    -28.479447522
done (   0.0 sec)
Diagonalizing the Hamiltonian                      ... done (   0.0 sec)
Back transforming the eigenvectors                 ... done (   0.0 sec)
Now organizing SCF variables                       ... done
The symmetry of the initial guess is 1-A'
Irrep occupations for operator 0
    A' -   13
    A" -    4
--------------
SCF ITERATIONS
--------------
ITER       Energy         Delta-E        Max-DP      RMS-DP      [F,P]     Damp
               ***  Starting incremental Fock matrix formation  ***
  0   -210.4768989109   0.000000000000 0.19479129  0.00292215  0.2413549 0.7000
  1   -210.5199091097  -0.043010198794 0.01383937  0.00050551  0.0620234 0.7000
                               ***Turning on DIIS***
  2   -210.5410147905  -0.021105680847 0.06355909  0.00095987  0.0286695 0.0000
  3   -210.5851144139  -0.044099623424 0.03013443  0.00055936  0.0224458 0.0000
  4   -210.5862255350  -0.001111121086 0.00616026  0.00013737  0.0117607 0.0000
                      *** Initiating the SOSCF procedure ***
                           *** Shutting down DIIS ***
                      *** Re-Reading the Fockian *** 
                      *** Removing any level shift *** 
ITER      Energy       Delta-E        Grad      Rot      Max-DP    RMS-DP
  5   -210.58645916  -0.0002336295  0.000431  0.000431  0.001526  0.000040
               *** Restarting incremental Fock matrix formation ***
  6   -210.58646393  -0.0000047635  0.000422  0.000965  0.004159  0.000085
  7   -210.58644145   0.0000224827  0.001079  0.000886  0.004486  0.000085
  8   -210.58646756  -0.0000261170  0.000080  0.000863  0.001793  0.000036
  9   -210.58646671   0.0000008541  0.000202  0.000637  0.000902  0.000022
 10   -210.58646774  -0.0000010317  0.000016  0.000133  0.000303  0.000008
 11   -210.58646773   0.0000000103  0.000026  0.000102  0.000123  0.000004
 12   -210.58646775  -0.0000000184  0.000005  0.000034  0.000088  0.000002
 13   -210.58646775   0.0000000008  0.000008  0.000023  0.000059  0.000002
                  ***Gradient check signals convergence***
              ***Rediagonalizing the Fockian in SOSCF/NRSCF***

               *****************************************************
               *                     SUCCESS                       *
               *           SCF CONVERGED AFTER  14 CYCLES          *
               *****************************************************

Setting up the final grid:

General Integration Accuracy     IntAcc      ...  5.010
Radial Grid Type                 RadialGrid  ... Gauss-Chebyshev
Angular Grid (max. acc.)         AngularGrid ... Lebedev-434
Angular grid pruning method      GridPruning ... 3 (G Style)
Weight generation scheme         WeightScheme... Becke
Basis function cutoff            BFCut       ...    1.0000e-11
Integration weight cutoff        WCut        ...    1.0000e-14
Grids for H and He will be reduced by one unit

# of grid points (after initial pruning)     ...  96364 (   0.0 sec)
# of grid points (after weights+screening)   ...  89657 (   0.1 sec)
nearest neighbour list constructed           ...    0.0 sec
Grid point re-assignment to atoms done       ...    0.0 sec
Grid point division into batches done        ...    0.6 sec
Reduced shell lists constructed in    0.7 sec

Total number of grid points                  ...    89657
Total number of batches                      ...     1407
Average number of points per batch           ...       63
Average number of grid points per atom       ...     7471
Average number of shells per batch           ...    66.24 (87.16%)
Average number of basis functions per batch  ...   152.62 (88.73%)
Average number of large shells per batch     ...    57.43 (86.70%)
Average number of large basis fcns per batch ...   133.31 (87.35%)
Maximum spatial batch extension              ...   1.49,  1.71,  1.59 au
Average spatial batch extension              ...   0.09,  0.09,  0.09 au

Final grid set up in    0.8 sec
Final integration                            ... done (   0.3 sec)
Change in XC energy                          ...     0.000165008
Integrated number of electrons               ...    33.999992606
Previous integrated no of electrons          ...    33.999948266
Total Energy       :         -210.58630274 Eh           -5730.34462 eV
  Last Energy change         ...   -1.9157e-09  Tolerance :   1.0000e-08
  Last MAX-Density change    ...    2.0939e-05  Tolerance :   1.0000e-07
             **** THE GBW FILE WAS UPDATED (0059_+.gbw) ****
             **** DENSITY FILE WAS UPDATED (0059_+.scfp.tmp) ****
             **** ENERGY FILE WAS UPDATED (0059_+.en.tmp) ****
Total SCF time: 0 days 0 hours 0 min 18 sec 
           ************************************************************
           *              Shut down parallel processing               *
           ************************************************************

-------------------------   --------------------
FINAL SINGLE POINT ENERGY      -210.586302740668
-------------------------   --------------------



           ************************************************************
           *        Program running with 8 parallel MPI-processes     *
           *              working on a common directory               *
           ************************************************************
------------------------------------------------------------------------------
                         ORCA SCF GRADIENT CALCULATION
------------------------------------------------------------------------------

Gradient of the Kohn-Sham DFT energy:
Kohn-Sham wavefunction type      ... RKS
Hartree-Fock exchange scaling    ...    0.250
Number of operators              ...    1
Number of atoms                  ...   12
Basis set dimensions             ...  172
Integral neglect threshold       ... 2.5e-11
Integral primitive cutoff        ... 2.5e-12

Nuclear repulsion gradient       ... done
One Electron Gradient            ... done
Pre-screening matrix             ... done
Starting the two electron gradient:
Two electron gradient done
Exchange-correlation gradient    ... done

------------------
CARTESIAN GRADIENT
------------------

   1   N   :    0.000141652    0.000109660   -0.000000001
   2   C   :   -0.000153949   -0.000081651   -0.000000000
   3   C   :    0.000084790    0.000019867   -0.000000000
   4   O   :   -0.000011422   -0.000065690    0.000000000
   5   H   :    0.000047680   -0.000077855   -0.000000000
   6   H   :   -0.000016132    0.000009209   -0.000066657
   7   H   :   -0.000016131    0.000009210    0.000066658
   8   H   :    0.000004680   -0.000001988    0.000062788
   9   H   :    0.000004681   -0.000001986   -0.000062788
  10   H   :   -0.000011718    0.000026099   -0.000070481
  11   H   :   -0.000011717    0.000026099    0.000070481
  12   H   :   -0.000062413    0.000029026   -0.000000000

Norm of the cartesian gradient     ...    0.000341534
RMS gradient                       ...    0.000056922
MAX gradient                       ...    0.000153949

-------
TIMINGS
-------

Total SCF gradient time            ...        7.164 sec

One electron gradient       ....       0.031 sec  (  0.4%)
Prescreening matrices       ....       0.129 sec  (  1.8%)
Two electron gradient       ....       5.518 sec  ( 77.0%)
XC gradient                 ....       1.304 sec  ( 18.2%)
           ************************************************************
           *              Shut down parallel processing               *
           ************************************************************
------------------------------------------------------------------------------
                         ORCA GEOMETRY RELAXATION STEP
------------------------------------------------------------------------------

Reading the OPT-File                    .... done
Getting information on internals        .... done
Copying old internal coords+grads       .... done
Making the new internal coordinates     .... (new redundants).... done
Validating the new internal coordinates .... (new redundants).... done
Calculating the B-matrix                .... done
Calculating the G,G- and P matrices     .... done
Transforming gradient to internals      .... done
Projecting the internal gradient        .... done
Number of atoms                         ....  12
Number of internal coordinates          ....  51
Current Energy                          ....  -210.586302741 Eh
Current gradient norm                   ....     0.000341534 Eh/bohr
Maximum allowed component of the step   ....  0.300
Current trust radius                    ....  0.300
Evaluating the initial hessian          ....  (Almloef) done
Projecting the Hessian                  .... done
Forming the augmented Hessian           .... done
Diagonalizing the augmented Hessian     .... done
Last element of RFO vector              ....  0.999999598
Lowest eigenvalues of augmented Hessian:
 -0.000000227  0.012268685  0.012763637  0.024700084  0.081095189
Length of the computed step             ....  0.000896351
The final length of the internal step   ....  0.000896351
Converting the step to cartesian space:
 Initial RMS(Int)=    0.0001255143
Transforming coordinates:
 Iter   0:  RMS(Cart)=    0.0001930557 RMS(Int)=    0.0001255128
 Iter   1:  RMS(Cart)=    0.0000000140 RMS(Int)=    0.0000000094
done
Storing new coordinates                 .... done

                                .--------------------.
          ----------------------|Geometry convergence|---------------------
          Item                value                 Tolerance   Converged
          -----------------------------------------------------------------
          RMS gradient        0.00003948            0.00003000      NO
          MAX gradient        0.00016220            0.00010000      NO
          RMS step            0.00012551            0.00060000      YES
          MAX step            0.00043469            0.00100000      YES
          ....................................................
          Max(Bonds)      0.0002      Max(Angles)    0.01
          Max(Dihed)        0.01      Max(Improp)    0.00
          -----------------------------------------------------------------

The optimization has not yet converged - more geometry cycles are needed


    ---------------------------------------------------------------------------
                         Redundant Internal Coordinates
                            (Angstroem and degrees)

        Definition                    Value    dE/dq     Step     New-Value
    ----------------------------------------------------------------------------
     1. B(C   1,N   0)                1.5003 -0.000162  0.0002    1.5006   
     2. B(C   2,C   1)                1.5162 -0.000039  0.0001    1.5163   
     3. B(O   3,C   2)                1.3916 -0.000080  0.0001    1.3917   
     4. B(H   4,N   0)                1.0221 -0.000091  0.0001    1.0222   
     5. B(H   5,N   0)                1.0228 -0.000055  0.0001    1.0229   
     6. B(H   6,N   0)                1.0228 -0.000055  0.0001    1.0229   
     7. B(H   7,C   1)                1.0899 -0.000052  0.0001    1.0900   
     8. B(H   8,C   1)                1.0899 -0.000052  0.0001    1.0900   
     9. B(H   9,C   2)                1.1011 -0.000071  0.0001    1.1012   
    10. B(H  10,C   2)                1.1011 -0.000071  0.0001    1.1012   
    11. B(H  11,O   3)                0.9616 -0.000067  0.0001    0.9617   
    12. A(H   4,N   0,H   5)          107.58 -0.000018    0.00    107.59   
    13. A(H   5,N   0,H   6)          107.48 -0.000046    0.01    107.50   
    14. A(H   4,N   0,H   6)          107.58 -0.000018    0.00    107.59   
    15. A(C   1,N   0,H   6)          111.36  0.000033   -0.01    111.35   
    16. A(C   1,N   0,H   5)          111.36  0.000033   -0.01    111.35   
    17. A(C   1,N   0,H   4)          111.27  0.000011   -0.00    111.27   
    18. A(H   7,C   1,H   8)          109.08 -0.000022    0.01    109.09   
    19. A(C   2,C   1,H   8)          110.90  0.000009   -0.00    110.90   
    20. A(N   0,C   1,H   8)          107.50  0.000012   -0.00    107.50   
    21. A(C   2,C   1,H   7)          110.90  0.000009   -0.00    110.90   
    22. A(N   0,C   1,H   7)          107.50  0.000012   -0.00    107.50   
    23. A(N   0,C   1,C   2)          110.83 -0.000019    0.00    110.83   
    24. A(O   3,C   2,H   9)          112.43  0.000004   -0.00    112.42   
    25. A(C   1,C   2,H   9)          109.95 -0.000014    0.00    109.95   
    26. A(H   9,C   2,H  10)          107.93 -0.000010    0.01    107.94   
    27. A(O   3,C   2,H  10)          112.43  0.000004   -0.00    112.42   
    28. A(C   1,C   2,H  10)          109.95 -0.000014    0.00    109.95   
    29. A(C   1,C   2,O   3)          104.12  0.000029   -0.01    104.11   
    30. A(C   2,O   3,H  11)          110.47 -0.000036    0.01    110.48   
    31. D(H   8,C   1,N   0,H   4)     58.65 -0.000007    0.00     58.66   
    32. D(C   2,C   1,N   0,H   5)     59.98 -0.000007    0.00     59.98   
    33. D(H   7,C   1,N   0,H   4)    -58.65  0.000007   -0.00    -58.66   
    34. D(H   8,C   1,N   0,H   5)    -61.37 -0.000013    0.01    -61.36   
    35. D(C   2,C   1,N   0,H   6)    -59.98  0.000007   -0.00    -59.98   
    36. D(H   7,C   1,N   0,H   6)     61.37  0.000013   -0.01     61.36   
    37. D(C   2,C   1,N   0,H   4)    180.00  0.000000   -0.00    180.00   
    38. D(H   8,C   1,N   0,H   6)    178.68 -0.000000    0.00    178.68   
    39. D(H   7,C   1,N   0,H   5)   -178.68  0.000000   -0.00   -178.68   
    40. D(H   9,C   2,C   1,H   7)   -178.67  0.000006   -0.00   -178.67   
    41. D(H   9,C   2,C   1,N   0)    -59.35  0.000014   -0.01    -59.35   
    42. D(O   3,C   2,C   1,H   8)    -60.68  0.000008   -0.01    -60.68   
    43. D(O   3,C   2,C   1,H   7)     60.68 -0.000008    0.01     60.68   
    44. D(H   9,C   2,C   1,H   8)     59.98  0.000022   -0.01     59.96   
    45. D(O   3,C   2,C   1,N   0)    180.00 -0.000000   -0.00    180.00   
    46. D(H  10,C   2,C   1,H   8)    178.67 -0.000006    0.00    178.67   
    47. D(H  10,C   2,C   1,H   7)    -59.98 -0.000022    0.01    -59.96   
    48. D(H  10,C   2,C   1,N   0)     59.35 -0.000014    0.01     59.35   
    49. D(H  11,O   3,C   2,H  10)    -61.02  0.000003   -0.00    -61.03   
    50. D(H  11,O   3,C   2,H   9)     61.02 -0.000003    0.00     61.03   
    51. D(H  11,O   3,C   2,C   1)    180.00 -0.000000   -0.00    180.00   
    ----------------------------------------------------------------------------

         *************************************************************
         *                GEOMETRY OPTIMIZATION CYCLE   2            *
         *************************************************************
---------------------------------
CARTESIAN COORDINATES (ANGSTROEM)
---------------------------------
  N     -1.851324    0.086255   -0.000000
  C     -0.430624    0.569242    0.000000
  C      0.536036   -0.598951    0.000000
  O      1.792197    0.000042   -0.000000
  H     -2.508951    0.868835    0.000000
  H     -2.050568   -0.484876    0.824887
  H     -2.050568   -0.484876   -0.824887
  H     -0.294357    1.186660   -0.887860
  H     -0.294357    1.186660    0.887860
  H      0.369106   -1.224837    0.890520
  H      0.369106   -1.224837   -0.890520
  H      2.483666   -0.668314   -0.000000

----------------------------
CARTESIAN COORDINATES (A.U.)
----------------------------
  NO LB      ZA    FRAG    MASS        X           Y           Z
   0 N     7.0000    0    14.007         -3.498495394505754          0.162998878236002         -0.000000005228333
   1 C     6.0000    0    12.011         -0.813760674083734          1.075711049907982          0.000000000976345
   2 C     6.0000    0    12.011          1.012960359551938         -1.131852636330632          0.000000005379600
   3 O     8.0000    0    15.999          3.386761429286765          0.000079756596065         -0.000000011471596
   4 H     1.0000    0     1.008         -4.741229681952152          1.641859754737897          0.000000001757025
   5 H     1.0000    0     1.008         -3.875012215011882         -0.916282179016814          1.558811162294417
   6 H     1.0000    0     1.008         -3.875012223299851         -0.916282172773041         -1.558811180147779
   7 H     1.0000    0     1.008         -0.556253903399661          2.242462964890283         -1.677812916797349
   8 H     1.0000    0     1.008         -0.556253919206278          2.242462951826820          1.677812925721806
   9 H     1.0000    0     1.008          0.697509033770482         -2.314607349570418          1.682838297681851
  10 H     1.0000    0     1.008          0.697509010208597         -2.314607360028925         -1.682838273623227
  11 H     1.0000    0     1.008          4.693449159469644         -1.262930425903345         -0.000000006542760

--------------------------------
INTERNAL COORDINATES (ANGSTROEM)
--------------------------------
 N      0   0   0   0.000000     0.000     0.000
 C      1   0   0   1.500555     0.000     0.000
 C      2   1   0   1.516279   110.831     0.000
 O      3   2   1   1.391666   104.113   180.000
 H      1   2   3   1.022205   111.265   180.000
 H      1   2   3   1.022902   111.354    59.981
 H      1   2   3   1.022902   111.354   300.019
 H      2   1   3   1.089986   107.499   121.341
 H      2   1   3   1.089986   107.499   238.659
 H      3   2   1   1.101193   109.953   300.646
 H      3   2   1   1.101193   109.953    59.354
 H      4   3   2   0.961681   110.480   180.000

---------------------------
INTERNAL COORDINATES (A.U.)
---------------------------
 N      0   0   0   0.000000     0.000     0.000
 C      1   0   0   2.835638     0.000     0.000
 C      2   1   0   2.865353   110.831     0.000
 O      3   2   1   2.629867   104.113   180.000
 H      1   2   3   1.931688   111.265   180.000
 H      1   2   3   1.933004   111.354    59.981
 H      1   2   3   1.933004   111.354   300.019
 H      2   1   3   2.059776   107.499   121.341
 H      2   1   3   2.059776   107.499   238.659
 H      3   2   1   2.080952   109.953   300.646
 H      3   2   1   2.080952   109.953    59.354
 H      4   3   2   1.817313   110.480   180.000



           ************************************************************
           *        Program running with 8 parallel MPI-processes     *
           *              working on a common directory               *
           ************************************************************
           ************************************************************
           *              Shut down parallel processing               *
           ************************************************************


           ************************************************************
           *        Program running with 8 parallel MPI-processes     *
           *              working on a common directory               *
           ************************************************************

Diagonalization of the overlap matrix:
Smallest eigenvalue                        ... 4.046e-04
Time for diagonalization                   ...    0.013 sec
Threshold for overlap eigenvalues          ... 1.000e-08
Number of eigenvalues below threshold      ... 0
Time for construction of square roots      ...    0.003 sec
Producing symmetrization matrix            ... done (   0.001 sec)
Total time needed                          ...    0.017 sec

Warning: Geometry matches/Basis set matches and symmetry is to be used
         We proceed in good trust that the input orbitals and irreps are correct
Irrep occupations for operator 0
    A' -   13
    A" -    4
-------------------
DFT GRID GENERATION
-------------------

General Integration Accuracy     IntAcc      ...  4.340
Radial Grid Type                 RadialGrid  ... Gauss-Chebyshev
Angular Grid (max. acc.)         AngularGrid ... Lebedev-194
Angular grid pruning method      GridPruning ... 3 (G Style)
Weight generation scheme         WeightScheme... Becke
Basis function cutoff            BFCut       ...    1.0000e-11
Integration weight cutoff        WCut        ...    1.0000e-14
Grids for H and He will be reduced by one unit

# of grid points (after initial pruning)     ...  25480 (   0.0 sec)
# of grid points (after weights+screening)   ...  23978 (   0.0 sec)
nearest neighbour list constructed           ...    0.0 sec
Grid point re-assignment to atoms done       ...    0.0 sec
Grid point division into batches done        ...    0.0 sec
Reduced shell lists constructed in    0.1 sec

Total number of grid points                  ...    23978
Total number of batches                      ...      380
Average number of points per batch           ...       63
Average number of grid points per atom       ...     1998
Average number of shells per batch           ...    65.76 (86.52%)
Average number of basis functions per batch  ...   151.06 (87.83%)
Average number of large shells per batch     ...    57.63 (87.65%)
Average number of large basis fcns per batch ...   133.18 (88.17%)
Maximum spatial batch extension              ...   1.85,  2.09,  1.76 au
Average spatial batch extension              ...   0.14,  0.14,  0.14 au

Time for grid setup =    0.102 sec

--------------
SCF ITERATIONS
--------------
ITER       Energy         Delta-E        Max-DP      RMS-DP      [F,P]     Damp
               ***  Starting incremental Fock matrix formation  ***
                      *** Initiating the SOSCF procedure ***
                      *** Re-Reading the Fockian *** 
                      *** Removing any level shift *** 
ITER      Energy       Delta-E        Grad      Rot      Max-DP    RMS-DP
  0   -210.58646782 -210.5864678171  0.000023  0.000023  0.000066  0.000002
               *** Restarting incremental Fock matrix formation ***
  1   -210.58646785  -0.0000000293  0.000018  0.000040  0.000100  0.000002
  2   -210.58646783   0.0000000203  0.000042  0.000029  0.000084  0.000002
                  ***Gradient check signals convergence***
              ***Rediagonalizing the Fockian in SOSCF/NRSCF***

               *****************************************************
               *                     SUCCESS                       *
               *           SCF CONVERGED AFTER   3 CYCLES          *
               *****************************************************

Setting up the final grid:

General Integration Accuracy     IntAcc      ...  5.010
Radial Grid Type                 RadialGrid  ... Gauss-Chebyshev
Angular Grid (max. acc.)         AngularGrid ... Lebedev-434
Angular grid pruning method      GridPruning ... 3 (G Style)
Weight generation scheme         WeightScheme... Becke
Basis function cutoff            BFCut       ...    1.0000e-11
Integration weight cutoff        WCut        ...    1.0000e-14
Grids for H and He will be reduced by one unit

# of grid points (after initial pruning)     ...  96364 (   0.0 sec)
# of grid points (after weights+screening)   ...  89657 (   0.1 sec)
nearest neighbour list constructed           ...    0.0 sec
Grid point re-assignment to atoms done       ...    0.0 sec
Grid point division into batches done        ...    0.6 sec
Reduced shell lists constructed in    0.7 sec

Total number of grid points                  ...    89657
Total number of batches                      ...     1408
Average number of points per batch           ...       63
Average number of grid points per atom       ...     7471
Average number of shells per batch           ...    66.24 (87.16%)
Average number of basis functions per batch  ...   152.62 (88.73%)
Average number of large shells per batch     ...    57.42 (86.69%)
Average number of large basis fcns per batch ...   133.29 (87.34%)
Maximum spatial batch extension              ...   1.49,  1.71,  1.59 au
Average spatial batch extension              ...   0.09,  0.09,  0.09 au

Final grid set up in    0.8 sec
Final integration                            ... done (   0.3 sec)
Change in XC energy                          ...     0.000164985
Integrated number of electrons               ...    33.999992608
Previous integrated no of electrons          ...    33.999948416
Total Energy       :         -210.58630287 Eh           -5730.34463 eV
  Last Energy change         ...   -2.6365e-08  Tolerance :   1.0000e-08
  Last MAX-Density change    ...    4.9231e-05  Tolerance :   1.0000e-07
             **** THE GBW FILE WAS UPDATED (0059_+.gbw) ****
             **** DENSITY FILE WAS UPDATED (0059_+.scfp.tmp) ****
             **** ENERGY FILE WAS UPDATED (0059_+.en.tmp) ****
Total SCF time: 0 days 0 hours 0 min 5 sec 
           ************************************************************
           *              Shut down parallel processing               *
           ************************************************************

-------------------------   --------------------
FINAL SINGLE POINT ENERGY      -210.586302867623
-------------------------   --------------------



           ************************************************************
           *        Program running with 8 parallel MPI-processes     *
           *              working on a common directory               *
           ************************************************************
------------------------------------------------------------------------------
                         ORCA SCF GRADIENT CALCULATION
------------------------------------------------------------------------------

Gradient of the Kohn-Sham DFT energy:
Kohn-Sham wavefunction type      ... RKS
Hartree-Fock exchange scaling    ...    0.250
Number of operators              ...    1
Number of atoms                  ...   12
Basis set dimensions             ...  172
Integral neglect threshold       ... 2.5e-11
Integral primitive cutoff        ... 2.5e-12

Nuclear repulsion gradient       ... done
One Electron Gradient            ... done
Pre-screening matrix             ... done
Starting the two electron gradient:
Two electron gradient done
Exchange-correlation gradient    ... done

------------------
CARTESIAN GRADIENT
------------------

   1   N   :    0.000108815    0.000056092    0.000000001
   2   C   :   -0.000091450   -0.000069110   -0.000000000
   3   C   :    0.000060626    0.000048186    0.000000002
   4   O   :   -0.000016654   -0.000013927   -0.000000004
   5   H   :   -0.000014778   -0.000000529    0.000000000
   6   H   :   -0.000020407   -0.000017269   -0.000005555
   7   H   :   -0.000020411   -0.000017271    0.000005554
   8   H   :    0.000013378    0.000019808    0.000012096
   9   H   :    0.000013377    0.000019809   -0.000012095
  10   H   :   -0.000014875   -0.000008818   -0.000005681
  11   H   :   -0.000014875   -0.000008820    0.000005682
  12   H   :   -0.000002746   -0.000008150    0.000000001

Norm of the cartesian gradient     ...    0.000196155
RMS gradient                       ...    0.000032693
MAX gradient                       ...    0.000108815

-------
TIMINGS
-------

Total SCF gradient time            ...        7.186 sec

One electron gradient       ....       0.032 sec  (  0.4%)
Prescreening matrices       ....       0.128 sec  (  1.8%)
Two electron gradient       ....       5.554 sec  ( 77.3%)
XC gradient                 ....       1.291 sec  ( 18.0%)
           ************************************************************
           *              Shut down parallel processing               *
           ************************************************************
------------------------------------------------------------------------------
                         ORCA GEOMETRY RELAXATION STEP
------------------------------------------------------------------------------

Reading the OPT-File                    .... done
Getting information on internals        .... done
Copying old internal coords+grads       .... done
Making the new internal coordinates     .... (new redundants).... done
Validating the new internal coordinates .... (new redundants).... done
Calculating the B-matrix                .... done
Calculating the G,G- and P matrices     .... done
Transforming gradient to internals      .... done
Projecting the internal gradient        .... done
Number of atoms                         ....  12
Number of internal coordinates          ....  51
Current Energy                          ....  -210.586302868 Eh
Current gradient norm                   ....     0.000196155 Eh/bohr
Maximum allowed component of the step   ....  0.300
Current trust radius                    ....  0.300
Updating the Hessian (BFGS)             .... done
Forming the augmented Hessian           .... done
Diagonalizing the augmented Hessian     .... done
Last element of RFO vector              ....  0.999999750
Lowest eigenvalues of augmented Hessian:
 -0.000000055  0.012268685  0.012763637  0.024700084  0.078598916
Length of the computed step             ....  0.000706908
The final length of the internal step   ....  0.000706908
Converting the step to cartesian space:
 Initial RMS(Int)=    0.0000989870
Transforming coordinates:
 Iter   0:  RMS(Cart)=    0.0001121662 RMS(Int)=    1.5238962676
 Iter   1:  RMS(Cart)=    0.0000000095 RMS(Int)=    0.0000000061
done
Storing new coordinates                 .... done

                                .--------------------.
          ----------------------|Geometry convergence|---------------------
          Item                value                 Tolerance   Converged
          -----------------------------------------------------------------
          Energy change      -0.00000013            0.00000100      YES
          RMS gradient        0.00001307            0.00003000      YES
          MAX gradient        0.00005446            0.00010000      YES
          RMS step            0.00009899            0.00060000      YES
          MAX step            0.00026394            0.00100000      YES
          ....................................................
          Max(Bonds)      0.0001      Max(Angles)    0.01
          Max(Dihed)        0.01      Max(Improp)    0.00
          -----------------------------------------------------------------

                    ***********************HURRAY********************
                    ***        THE OPTIMIZATION HAS CONVERGED     ***
                    *************************************************


    ---------------------------------------------------------------------------
                         Redundant Internal Coordinates

                          --- Optimized Parameters ---  
                            (Angstroem and degrees)

        Definition                    OldVal   dE/dq     Step     FinalVal
    ----------------------------------------------------------------------------
     1. B(C   1,N   0)                1.5006 -0.000054  0.0001    1.5007   
     2. B(C   2,C   1)                1.5163 -0.000003  0.0000    1.5163   
     3. B(O   3,C   2)                1.3917 -0.000024  0.0000    1.3917   
     4. B(H   4,N   0)                1.0222  0.000008  0.0000    1.0222   
     5. B(H   5,N   0)                1.0229  0.000010 -0.0000    1.0229   
     6. B(H   6,N   0)                1.0229  0.000010 -0.0000    1.0229   
     7. B(H   7,C   1)                1.0900  0.000003  0.0000    1.0900   
     8. B(H   8,C   1)                1.0900  0.000003  0.0000    1.0900   
     9. B(H   9,C   2)                1.1012  0.000002  0.0000    1.1012   
    10. B(H  10,C   2)                1.1012  0.000002  0.0000    1.1012   
    11. B(H  11,O   3)                0.9617  0.000002  0.0000    0.9617   
    12. A(H   4,N   0,H   5)          107.59 -0.000014    0.00    107.59   
    13. A(H   5,N   0,H   6)          107.50 -0.000029    0.01    107.51   
    14. A(H   4,N   0,H   6)          107.59 -0.000014    0.00    107.59   
    15. A(C   1,N   0,H   6)          111.35  0.000021   -0.01    111.35   
    16. A(C   1,N   0,H   5)          111.35  0.000021   -0.01    111.35   
    17. A(C   1,N   0,H   4)          111.27  0.000012   -0.00    111.26   
    18. A(H   7,C   1,H   8)          109.09 -0.000014    0.01    109.10   
    19. A(C   2,C   1,H   8)          110.90  0.000002   -0.00    110.90   
    20. A(N   0,C   1,H   8)          107.50  0.000009   -0.00    107.49   
    21. A(C   2,C   1,H   7)          110.90  0.000002   -0.00    110.90   
    22. A(N   0,C   1,H   7)          107.50  0.000009   -0.00    107.49   
    23. A(N   0,C   1,C   2)          110.83 -0.000007   -0.00    110.83   
    24. A(O   3,C   2,H   9)          112.42  0.000000   -0.00    112.42   
    25. A(C   1,C   2,H   9)          109.95 -0.000011    0.00    109.96   
    26. A(H   9,C   2,H  10)          107.94 -0.000004    0.01    107.94   
    27. A(O   3,C   2,H  10)          112.42  0.000000   -0.00    112.42   
    28. A(C   1,C   2,H  10)          109.95 -0.000011    0.00    109.96   
    29. A(C   1,C   2,O   3)          104.11  0.000026   -0.01    104.10   
    30. A(C   2,O   3,H  11)          110.48 -0.000009    0.00    110.48   
    31. D(H   8,C   1,N   0,H   4)     58.66 -0.000004    0.00     58.66   
    32. D(C   2,C   1,N   0,H   5)     59.98 -0.000004    0.00     59.98   
    33. D(H   7,C   1,N   0,H   4)    -58.66  0.000004   -0.00    -58.66   
    34. D(H   8,C   1,N   0,H   5)    -61.36 -0.000008    0.01    -61.35   
    35. D(C   2,C   1,N   0,H   6)    -59.98  0.000004   -0.00    -59.98   
    36. D(H   7,C   1,N   0,H   6)     61.36  0.000008   -0.01     61.35   
    37. D(C   2,C   1,N   0,H   4)    180.00 -0.000000    0.00    180.00   
    38. D(H   8,C   1,N   0,H   6)    178.68  0.000000    0.00    178.68   
    39. D(H   7,C   1,N   0,H   5)   -178.68 -0.000000   -0.00   -178.68   
    40. D(H   9,C   2,C   1,H   7)   -178.67  0.000001    0.00   -178.67   
    41. D(H   9,C   2,C   1,N   0)    -59.35  0.000009   -0.01    -59.36   
    42. D(O   3,C   2,C   1,H   8)    -60.68  0.000008   -0.01    -60.69   
    43. D(O   3,C   2,C   1,H   7)     60.68 -0.000008    0.01     60.69   
    44. D(H   9,C   2,C   1,H   8)     59.96  0.000017   -0.01     59.95   
    45. D(O   3,C   2,C   1,N   0)    180.00 -0.000000    0.00    180.00   
    46. D(H  10,C   2,C   1,H   8)    178.67 -0.000001   -0.00    178.67   
    47. D(H  10,C   2,C   1,H   7)    -59.96 -0.000017    0.01    -59.95   
    48. D(H  10,C   2,C   1,N   0)     59.35 -0.000009    0.01     59.36   
    49. D(H  11,O   3,C   2,H  10)    -61.03  0.000002   -0.00    -61.03   
    50. D(H  11,O   3,C   2,H   9)     61.03 -0.000002    0.00     61.03   
    51. D(H  11,O   3,C   2,C   1)    180.00 -0.000000    0.00    180.00   
    ----------------------------------------------------------------------------
                 *******************************************************
                 *** FINAL ENERGY EVALUATION AT THE STATIONARY POINT ***
                 ***               (AFTER    2 CYCLES)               ***
                 *******************************************************


           ************************************************************
           *        Program running with 8 parallel MPI-processes     *
           *              working on a common directory               *
           ************************************************************
           ************************************************************
           *              Shut down parallel processing               *
           ************************************************************


           ************************************************************
           *        Program running with 8 parallel MPI-processes     *
           *              working on a common directory               *
           ************************************************************
------------
SCF SETTINGS
------------
Hamiltonian:
 Density Functional     Method          .... DFT(GTOs)
 Exchange Functional    Exchange        .... PBE
   PBE kappa parameter  XKappa          ....  0.804000
 Correlation Functional Correlation     .... PBE
 LDA part of GGA corr.  LDAOpt          .... PW91-LDA
 Gradients option       PostSCFGGA      .... off
 Hybrid DFT is turned on
   Fraction HF Exchange ScalHFX         ....  0.250000
   Scaling of DF-GGA-X  ScalDFX         ....  0.750000
   Scaling of DF-GGA-C  ScalDFC         ....  1.000000
   Scaling of DF-LDA-C  ScalLDAC        ....  1.000000
   Perturbative correction              ....  0.000000
   NL short-range parameter             ....  6.900000


General Settings:
 Integral files         IntName         .... 0059_+
 Hartree-Fock type      HFTyp           .... RHF
 Total Charge           Charge          ....    1
 Multiplicity           Mult            ....    1
 Number of Electrons    NEL             ....   34
 Basis Dimension        Dim             ....  172
 Nuclear Repulsion      ENuc            ....    140.2220288369 Eh

 Symmetry handling      UseSym         .... ON
 Point group                           .... Cs
 Used point group                      .... Cs
 Number of irreps                      .... 2
   Irrep   A' has  112 symmetry adapted basis functions (ofs=   0)
   Irrep   A" has   60 symmetry adapted basis functions (ofs= 112)

Convergence Acceleration:
 DIIS                   CNVDIIS         .... on
   Start iteration      DIISMaxIt       ....    12
   Startup error        DIISStart       ....  0.200000
   # of expansion vecs  DIISMaxEq       ....     5
   Bias factor          DIISBfac        ....   1.050
   Max. coefficient     DIISMaxC        ....  10.000
 Newton-Raphson         CNVNR           .... off
 SOSCF                  CNVSOSCF        .... on
   Start iteration      SOSCFMaxIt      ....   150
   Startup grad/error   SOSCFStart      ....  0.003300
 Level Shifting         CNVShift        .... on
   Level shift para.    LevelShift      ....    0.2500
   Turn off err/grad.   ShiftErr        ....    0.0010
 Zerner damping         CNVZerner       .... off
 Static damping         CNVDamp         .... on
   Fraction old density DampFac         ....    0.7000
   Max. Damping (<1)    DampMax         ....    0.9800
   Min. Damping (>=0)   DampMin         ....    0.0000
   Turn off err/grad.   DampErr         ....    0.1000
 Fernandez-Rico         CNVRico         .... off

SCF Procedure:
 Maximum # iterations   MaxIter         ....   125
 SCF integral mode      SCFMode         .... Direct
   Integral package                     .... LIBINT
 Reset frequeny         DirectResetFreq ....    20
 Integral Threshold     Thresh          ....  2.500e-11 Eh
 Primitive CutOff       TCut            ....  2.500e-12 Eh

Convergence Tolerance:
 Convergence Check Mode ConvCheckMode   .... Total+1el-Energy
 Energy Change          TolE            ....  1.000e-08 Eh
 1-El. energy change                    ....  1.000e-05 Eh
 Orbital Gradient       TolG            ....  1.000e-05
 Orbital Rotation angle TolX            ....  1.000e-05
 DIIS Error             TolErr          ....  5.000e-07


Diagonalization of the overlap matrix:
Smallest eigenvalue                        ... 4.046e-04
Time for diagonalization                   ...    0.010 sec
Threshold for overlap eigenvalues          ... 1.000e-08
Number of eigenvalues below threshold      ... 0
Time for construction of square roots      ...    0.003 sec
Producing symmetrization matrix            ... done (   0.001 sec)
Total time needed                          ...    0.015 sec

Warning: Geometry matches/Basis set matches and symmetry is to be used
         We proceed in good trust that the input orbitals and irreps are correct
Irrep occupations for operator 0
    A' -   13
    A" -    4
-------------------
DFT GRID GENERATION
-------------------

General Integration Accuracy     IntAcc      ...  4.340
Radial Grid Type                 RadialGrid  ... Gauss-Chebyshev
Angular Grid (max. acc.)         AngularGrid ... Lebedev-194
Angular grid pruning method      GridPruning ... 3 (G Style)
Weight generation scheme         WeightScheme... Becke
Basis function cutoff            BFCut       ...    1.0000e-11
Integration weight cutoff        WCut        ...    1.0000e-14
Grids for H and He will be reduced by one unit

# of grid points (after initial pruning)     ...  25480 (   0.0 sec)
# of grid points (after weights+screening)   ...  23978 (   0.0 sec)
nearest neighbour list constructed           ...    0.0 sec
Grid point re-assignment to atoms done       ...    0.0 sec
Grid point division into batches done        ...    0.0 sec
Reduced shell lists constructed in    0.1 sec

Total number of grid points                  ...    23978
Total number of batches                      ...      380
Average number of points per batch           ...       63
Average number of grid points per atom       ...     1998
Average number of shells per batch           ...    65.82 (86.60%)
Average number of basis functions per batch  ...   151.20 (87.91%)
Average number of large shells per batch     ...    57.65 (87.60%)
Average number of large basis fcns per batch ...   133.20 (88.10%)
Maximum spatial batch extension              ...   1.85,  2.09,  1.76 au
Average spatial batch extension              ...   0.14,  0.14,  0.14 au

Time for grid setup =    0.102 sec

--------------
SCF ITERATIONS
--------------
ITER       Energy         Delta-E        Max-DP      RMS-DP      [F,P]     Damp
               ***  Starting incremental Fock matrix formation  ***
                      *** Initiating the SOSCF procedure ***
                      *** Re-Reading the Fockian *** 
                      *** Removing any level shift *** 
ITER      Energy       Delta-E        Grad      Rot      Max-DP    RMS-DP
  0   -210.58646786 -210.5864678646  0.000014  0.000014  0.000061  0.000001
               *** Restarting incremental Fock matrix formation ***
  1   -210.58646788  -0.0000000158  0.000003  0.000012  0.000024  0.000001
  2   -210.58646788   0.0000000010  0.000008  0.000011  0.000023  0.000001
                  ***Gradient check signals convergence***
              ***Rediagonalizing the Fockian in SOSCF/NRSCF***

               *****************************************************
               *                     SUCCESS                       *
               *           SCF CONVERGED AFTER   3 CYCLES          *
               *****************************************************

Setting up the final grid:

General Integration Accuracy     IntAcc      ...  5.010
Radial Grid Type                 RadialGrid  ... Gauss-Chebyshev
Angular Grid (max. acc.)         AngularGrid ... Lebedev-434
Angular grid pruning method      GridPruning ... 3 (G Style)
Weight generation scheme         WeightScheme... Becke
Basis function cutoff            BFCut       ...    1.0000e-11
Integration weight cutoff        WCut        ...    1.0000e-14
Grids for H and He will be reduced by one unit

# of grid points (after initial pruning)     ...  96364 (   0.0 sec)
# of grid points (after weights+screening)   ...  89657 (   0.1 sec)
nearest neighbour list constructed           ...    0.0 sec
Grid point re-assignment to atoms done       ...    0.0 sec
Grid point division into batches done        ...    0.6 sec
Reduced shell lists constructed in    0.7 sec

Total number of grid points                  ...    89657
Total number of batches                      ...     1407
Average number of points per batch           ...       63
Average number of grid points per atom       ...     7471
Average number of shells per batch           ...    66.23 (87.14%)
Average number of basis functions per batch  ...   152.59 (88.71%)
Average number of large shells per batch     ...    57.40 (86.67%)
Average number of large basis fcns per batch ...   133.25 (87.33%)
Maximum spatial batch extension              ...   1.60,  1.68,  1.59 au
Average spatial batch extension              ...   0.09,  0.09,  0.09 au

Final grid set up in    0.8 sec
Final integration                            ... done (   0.3 sec)
Change in XC energy                          ...     0.000164980
Integrated number of electrons               ...    33.999992611
Previous integrated no of electrons          ...    33.999948697
Total Energy       :         -210.58630290 Eh           -5730.34463 eV
  Last Energy change         ...   -1.7265e-09  Tolerance :   1.0000e-08
  Last MAX-Density change    ...    2.1034e-05  Tolerance :   1.0000e-07
             **** THE GBW FILE WAS UPDATED (0059_+.gbw) ****
             **** DENSITY FILE WAS UPDATED (0059_+.scfp.tmp) ****
             **** ENERGY FILE WAS UPDATED (0059_+.en.tmp) ****
Total SCF time: 0 days 0 hours 0 min 5 sec 
           ************************************************************
           *              Shut down parallel processing               *
           ************************************************************

-------------------------   --------------------
FINAL SINGLE POINT ENERGY      -210.586302901139
-------------------------   --------------------

                                *** OPTIMIZATION RUN DONE ***

                            ***************************************
                            *     ORCA property calculations      *
                            ***************************************

                                    ---------------------
                                    Active property flags
                                    ---------------------




           ************************************************************
           *        Program running with 8 parallel MPI-processes     *
           *              working on a common directory               *
           ************************************************************

-------------------------------------------------------------------------------
                               ORCA SCF HESSIAN
-------------------------------------------------------------------------------

Hessian of the Kohn-Sham DFT energy:
Kohn-Sham wavefunction type                      ... RKS
Hartree-Fock exchange scaling                    ...    0.250
Number of operators                              ...    1
Number of atoms                                  ...   12
Basis set dimensions                             ...  172
Integral neglect threshold                       ... 2.5e-11
Integral primitive cutoff                        ... 2.5e-12

Setting up DFT Hessian calculations              ... 
Electron density on the grid                     ... found on disk
Electron density on the final grid               ... found on disk
Building xc-kernel on the grid                   ... done   (      0.0 sec)
Building xc-kernel on the final grid             ... done   (      0.0 sec)
                                                     done   (      0.1 sec)

Nuclear repulsion Hessian                        ... done   (      0.0 sec)

----------------------------------------------
Forming right-hand sides of CP-SCF equations     ...
----------------------------------------------
One electron integral derivatives                ... done   (      0.2 sec)
Transforming the overlap derivative matrices     ... done   (      0.0 sec)
Making the Q(x) pseudodensities                  ... done   (      0.0 sec)
Adding the E*S(x)*S(y) terms to the Hessian      ... done   (      0.0 sec)
Calculating energy weighted overlap derivatives  ... done   (      0.0 sec)
Two electron integral derivatives                ... done   (      7.6 sec)
Exchange-correlation integral derivatives        ... done   (     13.5 sec)
tr(F(y)Q(x)) contribution to the Hessian         ... done   (      0.0 sec)
Response fock operator R(S(x))                   ... done   (     15.8 sec)
XC Response fock operator R(S(x))                ... done   (      5.3 sec)
tr(F(y)S(x)) contribution to the Hessian         ... done   (      0.0 sec)
Transforming and finalizing RHSs                 ... done   (      0.0 sec)

----------------------------------------------
Solving the CP-SCF equations                     ...
----------------------------------------------
     CP-SCF ITERATION   0: 
     CP-SCF ITERATION   1:      0.000387464
     CP-SCF ITERATION   2:      0.000049540
     CP-SCF ITERATION   3:      0.000002774
     CP-SCF ITERATION   4:      0.000000163
     CP-SCF ITERATION   5:      0.000000012
     CP-SCF ITERATION   6:      0.000000008

                                                 ... done   (    134.7 sec)
Forming perturbed density Hessian contributions  ... done   (      0.0 sec)
Making the perturbed densities                   ... done   (      0.0 sec)
2nd integral derivative contribs                 ... done   (     45.4 sec)
Exchange-correlation Hessian                     ... done   (      9.2 sec)
Dipol derivatives                                ... done   (      1.0 sec)

Total SCF Hessian time: 0 days 0 hours 3 min 53 sec 

Writing the Hessian file to the disk             ... done

           ************************************************************
           *              Shut down parallel processing               *
           ************************************************************

-----------------------
VIBRATIONAL FREQUENCIES
-----------------------

   0:         0.00 cm**-1
   1:         0.00 cm**-1
   2:         0.00 cm**-1
   3:         0.00 cm**-1
   4:         0.00 cm**-1
   5:         0.00 cm**-1
   6:        87.83 cm**-1
   7:       213.56 cm**-1
   8:       252.05 cm**-1
   9:       266.69 cm**-1
  10:       461.08 cm**-1
  11:       798.05 cm**-1
  12:       899.87 cm**-1
  13:       936.62 cm**-1
  14:      1006.76 cm**-1
  15:      1093.49 cm**-1
  16:      1165.77 cm**-1
  17:      1189.64 cm**-1
  18:      1267.46 cm**-1
  19:      1295.62 cm**-1
  20:      1337.27 cm**-1
  21:      1386.07 cm**-1
  22:      1481.18 cm**-1
  23:      1495.46 cm**-1
  24:      1513.63 cm**-1
  25:      1525.74 cm**-1
  26:      1659.96 cm**-1
  27:      1665.37 cm**-1
  28:      2979.62 cm**-1
  29:      3013.96 cm**-1
  30:      3110.88 cm**-1
  31:      3174.48 cm**-1
  32:      3420.46 cm**-1
  33:      3496.58 cm**-1
  34:      3504.59 cm**-1
  35:      3863.09 cm**-1


------------
NORMAL MODES
------------

These modes are the cartesian displacements weighted by the diagonal matrix
M(i,i)=1/sqrt(m[i]) where m[i] is the mass of the displaced atom
Thus, these vectors are normalized but *not* orthogonal

                  0          1          2          3          4          5    
      0       0.000000   0.000000   0.000000   0.000000   0.000000   0.000000
      1       0.000000   0.000000   0.000000   0.000000   0.000000   0.000000
      2       0.000000   0.000000   0.000000   0.000000   0.000000   0.000000
      3       0.000000   0.000000   0.000000   0.000000   0.000000   0.000000
      4       0.000000   0.000000   0.000000   0.000000   0.000000   0.000000
      5       0.000000   0.000000   0.000000   0.000000   0.000000   0.000000
      6       0.000000   0.000000   0.000000   0.000000   0.000000   0.000000
      7       0.000000   0.000000   0.000000   0.000000   0.000000   0.000000
      8       0.000000   0.000000   0.000000   0.000000   0.000000   0.000000
      9       0.000000   0.000000   0.000000   0.000000   0.000000   0.000000
     10       0.000000   0.000000   0.000000   0.000000   0.000000   0.000000
     11       0.000000   0.000000   0.000000   0.000000   0.000000   0.000000
     12       0.000000   0.000000   0.000000   0.000000   0.000000   0.000000
     13       0.000000   0.000000   0.000000   0.000000   0.000000   0.000000
     14       0.000000   0.000000   0.000000   0.000000   0.000000   0.000000
     15       0.000000   0.000000   0.000000   0.000000   0.000000   0.000000
     16       0.000000   0.000000   0.000000   0.000000   0.000000   0.000000
     17       0.000000   0.000000   0.000000   0.000000   0.000000   0.000000
     18       0.000000   0.000000   0.000000   0.000000   0.000000   0.000000
     19       0.000000   0.000000   0.000000   0.000000   0.000000   0.000000
     20       0.000000   0.000000   0.000000   0.000000   0.000000   0.000000
     21       0.000000   0.000000   0.000000   0.000000   0.000000   0.000000
     22       0.000000   0.000000   0.000000   0.000000   0.000000   0.000000
     23       0.000000   0.000000   0.000000   0.000000   0.000000   0.000000
     24       0.000000   0.000000   0.000000   0.000000   0.000000   0.000000
     25       0.000000   0.000000   0.000000   0.000000   0.000000   0.000000
     26       0.000000   0.000000   0.000000   0.000000   0.000000   0.000000
     27       0.000000   0.000000   0.000000   0.000000   0.000000   0.000000
     28       0.000000   0.000000   0.000000   0.000000   0.000000   0.000000
     29       0.000000   0.000000   0.000000   0.000000   0.000000   0.000000
     30       0.000000   0.000000   0.000000   0.000000   0.000000   0.000000
     31       0.000000   0.000000   0.000000   0.000000   0.000000   0.000000
     32       0.000000   0.000000   0.000000   0.000000   0.000000   0.000000
     33       0.000000   0.000000   0.000000   0.000000   0.000000   0.000000
     34       0.000000   0.000000   0.000000   0.000000   0.000000   0.000000
     35       0.000000   0.000000   0.000000   0.000000   0.000000   0.000000
                  6          7          8          9         10         11    
      0      -0.000000   0.000000   0.000000  -0.077184  -0.291782   0.000000
      1      -0.000000   0.000000   0.000000   0.142416   0.022219   0.000000
      2       0.139577  -0.006377  -0.030164   0.000000  -0.000000   0.010365
      3      -0.000000   0.000000   0.000000   0.041997  -0.153488   0.000000
      4      -0.000000   0.000000   0.000000  -0.213114  -0.036943   0.000000
      5      -0.199008   0.064857   0.013684   0.000000  -0.000000   0.066645
      6       0.000000  -0.000000  -0.000000   0.080840   0.166194  -0.000000
      7       0.000000  -0.000000   0.000000  -0.183762   0.099805  -0.000000
      8      -0.182041  -0.038055   0.057393  -0.000000   0.000000   0.034848
      9       0.000000  -0.000000   0.000000  -0.057004   0.311125  -0.000000
     10       0.000000  -0.000000  -0.000000   0.155416  -0.081369  -0.000000
     11       0.210097  -0.010119   0.032955   0.000000   0.000000  -0.012944
     12      -0.000000   0.000000   0.000000   0.174801  -0.120024   0.000000
     13      -0.000000   0.000000   0.000000   0.355541   0.169654   0.000000
     14       0.127439  -0.584287  -0.067670   0.000000  -0.000000  -0.067240
     15       0.159201  -0.205407  -0.033182  -0.267955  -0.422468  -0.179474
     16       0.142715   0.436278   0.011918   0.214120   0.076557  -0.102305
     17       0.276906   0.244260  -0.029590   0.002693   0.006232  -0.103597
     18      -0.159201   0.205407   0.033182  -0.267955  -0.422468   0.179474
     19      -0.142715  -0.436278  -0.011918   0.214121   0.076557   0.102305
     20       0.276906   0.244260  -0.029590  -0.002693  -0.006232  -0.103597
     21      -0.171124   0.019372   0.034510   0.152071  -0.276942  -0.014059
     22      -0.098573   0.058011  -0.023669  -0.222852   0.008978  -0.465525
     23      -0.292648   0.107882   0.003492   0.010299   0.010075  -0.263455
     24       0.171124  -0.019372  -0.034510   0.152071  -0.276942   0.014059
     25       0.098573  -0.058011   0.023669  -0.222852   0.008978   0.465525
     26      -0.292648   0.107882   0.003492  -0.010299  -0.010075  -0.263455
     27      -0.198700   0.016779   0.014800   0.218679   0.185018   0.107753
     28      -0.137872  -0.090812   0.018680  -0.203727   0.091715  -0.329336
     29      -0.310428  -0.101148   0.076773   0.004463  -0.008400  -0.186124
     30       0.198700  -0.016779  -0.014800   0.218679   0.185018  -0.107753
     31       0.137872   0.090812  -0.018680  -0.203727   0.091715   0.329336
     32      -0.310428  -0.101148   0.076773  -0.004463   0.008400  -0.186124
     33       0.000000  -0.000000  -0.000000   0.133231   0.113773  -0.000000
     34       0.000000  -0.000000  -0.000000   0.352658  -0.290461  -0.000000
     35      -0.208849   0.012151  -0.984508  -0.000000   0.000000   0.025667
                 12         13         14         15         16         17    
      0       0.148498  -0.000000  -0.166103   0.040528  -0.038480   0.000000
      1      -0.028117  -0.000000  -0.158326  -0.056685   0.059340   0.000000
      2      -0.000000  -0.058615   0.000000   0.000000   0.000000  -0.044958
      3      -0.077493  -0.000000   0.348428  -0.031712   0.013188   0.000000
      4      -0.173341  -0.000000   0.036242   0.117880  -0.083918   0.000000
      5      -0.000000  -0.011972  -0.000000  -0.000000  -0.000000   0.108552
      6      -0.060206   0.000000  -0.035589   0.136988   0.272882  -0.000000
      7       0.160614   0.000000   0.103559  -0.053654   0.195399  -0.000000
      8       0.000000   0.066939   0.000000   0.000000   0.000000  -0.161452
      9       0.003766  -0.000000  -0.048392  -0.089191  -0.226695  -0.000000
     10       0.003861   0.000000   0.003842  -0.072603  -0.108752  -0.000000
     11       0.000000  -0.015367  -0.000000  -0.000000  -0.000000   0.054510
     12       0.633226  -0.000000   0.241044   0.380726  -0.275885   0.000000
     13       0.377629  -0.000000   0.179580   0.226960  -0.138940   0.000000
     14      -0.000000   0.222047  -0.000000  -0.000000   0.000000   0.092200
     15      -0.212132   0.426822  -0.472071  -0.230914   0.163213   0.172390
     16       0.138004   0.176615   0.001127   0.094300  -0.059191   0.083805
     17       0.030283   0.166693   0.032795   0.035862  -0.031879   0.056276
     18      -0.212132  -0.426822  -0.472071  -0.230914   0.163213  -0.172390
     19       0.138004  -0.176615   0.001127   0.094300  -0.059191  -0.083805
     20      -0.030283   0.166693  -0.032795  -0.035862   0.031879   0.056276
     21      -0.148735   0.353503   0.258979  -0.343540   0.099923   0.113037
     22      -0.121798  -0.006786   0.001817   0.212905  -0.075249  -0.285578
     23       0.022964   0.042130  -0.041860   0.010256   0.020649  -0.072923
     24      -0.148735  -0.353503   0.258979  -0.343540   0.099923  -0.113037
     25      -0.121798   0.006786   0.001817   0.212905  -0.075249   0.285578
     26      -0.022964   0.042130   0.041860  -0.010256  -0.020649  -0.072923
     27      -0.086209   0.084646  -0.185189   0.004473   0.431901   0.423303
     28       0.151050  -0.284510   0.165262  -0.036225   0.120577   0.359687
     29      -0.010383  -0.122887   0.009428  -0.001554  -0.003990   0.161809
     30      -0.086209  -0.084646  -0.185189   0.004473   0.431901  -0.423303
     31       0.151050   0.284510   0.165262  -0.036225   0.120577  -0.359687
     32       0.010383  -0.122887  -0.009428   0.001554   0.003990   0.161809
     33      -0.221566   0.000000  -0.095938   0.357272  -0.390088  -0.000000
     34      -0.231045   0.000000  -0.042729   0.405820  -0.260162  -0.000000
     35       0.000000   0.009519  -0.000000   0.000000  -0.000000   0.007369
                 18         19         20         21         22         23    
      0       0.015473  -0.000000   0.000000  -0.006113  -0.025974   0.013178
      1      -0.038924  -0.000000   0.000000   0.056583   0.010348   0.018294
      2       0.000000  -0.055451   0.077814  -0.000000   0.000000   0.000000
      3       0.002203  -0.000000   0.000000   0.124893   0.079043   0.035978
      4       0.096762  -0.000000   0.000000  -0.086785  -0.053291   0.061279
      5       0.000000   0.115384  -0.028940   0.000000  -0.000000   0.000000
      6      -0.011862   0.000000  -0.000000   0.034571  -0.164017  -0.022357
      7      -0.088479   0.000000  -0.000000  -0.033551   0.075792  -0.007962
      8      -0.000000  -0.020316  -0.042324  -0.000000   0.000000  -0.000000
      9      -0.000821  -0.000000  -0.000000  -0.000768   0.008287  -0.001267
     10       0.056905   0.000000  -0.000000   0.035727  -0.047376  -0.007295
     11      -0.000000  -0.029054  -0.003457   0.000000  -0.000000   0.000000
     12       0.153621  -0.000000   0.000000  -0.177463   0.041001  -0.040272
     13       0.076851  -0.000000   0.000000  -0.090194   0.058229  -0.025730
     14       0.000000   0.115347  -0.116264   0.000000  -0.000000   0.000000
     15      -0.106452   0.166496  -0.189383   0.097847   0.130264  -0.017890
     16       0.046274   0.098496  -0.116599  -0.052511  -0.029846  -0.013862
     17       0.026343   0.054796  -0.045983  -0.052790   0.004543  -0.031395
     18      -0.106452  -0.166496   0.189383   0.097847   0.130264  -0.017890
     19       0.046274  -0.098496   0.116599  -0.052511  -0.029846  -0.013862
     20      -0.026343   0.054796  -0.045983   0.052790  -0.004543   0.031395
     21      -0.085503  -0.080880   0.618254  -0.562052  -0.209705  -0.251674
     22       0.121330  -0.228894  -0.069501   0.174372   0.160625  -0.483062
     23      -0.003270  -0.047094   0.008932   0.076702   0.101920  -0.403762
     24      -0.085503   0.080880  -0.618254  -0.562052  -0.209705  -0.251674
     25       0.121330   0.228894   0.069501   0.174372   0.160625  -0.483062
     26       0.003270  -0.047094   0.008932  -0.076702  -0.101920   0.403762
     27       0.345678  -0.601512  -0.188231  -0.257756   0.534795   0.111894
     28      -0.173858   0.144714   0.121173   0.044060  -0.120038   0.109443
     29       0.004066  -0.008068   0.007364   0.007032  -0.024396   0.096116
     30       0.345678   0.601512   0.188231  -0.257756   0.534795   0.111894
     31      -0.173858  -0.144714  -0.121173   0.044060  -0.120038   0.109443
     32      -0.004066  -0.008068   0.007364  -0.007032   0.024396  -0.096116
     33      -0.547966   0.000000  -0.000000  -0.181595   0.290206   0.030297
     34      -0.525362   0.000000  -0.000000  -0.161096   0.260330   0.026969
     35      -0.000000  -0.015740  -0.001625  -0.000000   0.000000  -0.000000
                 24         25         26         27         28         29    
      0       0.090947  -0.050437   0.000000   0.013843  -0.000368   0.000000
      1       0.027053  -0.018180   0.000000  -0.046634   0.000409   0.000000
      2       0.000000  -0.000000  -0.047725  -0.000000  -0.000000  -0.000733
      3      -0.003124  -0.013548   0.000000   0.011261   0.000745   0.000000
      4      -0.018203  -0.009058   0.000000  -0.017170  -0.003004   0.000000
      5       0.000000  -0.000000  -0.014710   0.000000   0.000000   0.006924
      6      -0.029446  -0.005123  -0.000000  -0.004453   0.012026  -0.000000
      7      -0.029770  -0.079418  -0.000000   0.005309   0.064266  -0.000000
      8      -0.000000   0.000000  -0.000025  -0.000000  -0.000000  -0.094990
      9      -0.000197  -0.001655  -0.000000  -0.000218   0.002315  -0.000000
     10      -0.009215   0.000756  -0.000000  -0.002398   0.000706  -0.000000
     11      -0.000000   0.000000   0.000901   0.000000   0.000000   0.000123
     12      -0.356096   0.219596   0.000000  -0.259317  -0.002990   0.000000
     13      -0.325908   0.195174   0.000000  -0.253110  -0.002426   0.000000
     14       0.000000  -0.000000   0.721800   0.000000   0.000000   0.002757
     15      -0.450996   0.258472  -0.402926   0.018850  -0.005352  -0.006356
     16      -0.044473   0.015371   0.265566   0.530176   0.000244  -0.002088
     17      -0.158648   0.085965   0.058142   0.386413   0.004028   0.004709
     18      -0.450996   0.258472   0.402926   0.018850  -0.005352   0.006356
     19      -0.044473   0.015371  -0.265566   0.530176   0.000244   0.002088
     20       0.158648  -0.085965   0.058142  -0.386413  -0.004028   0.004709
     21       0.037617   0.036684   0.040765  -0.038760   0.004334   0.011798
     22       0.108180   0.076383   0.014655  -0.012079   0.010948   0.030214
     23       0.092194   0.065084  -0.003138  -0.000146  -0.020116  -0.045996
     24       0.037617   0.036684  -0.040765  -0.038760   0.004334  -0.011798
     25       0.108180   0.076383  -0.014655  -0.012079   0.010948  -0.030214
     26      -0.092194  -0.065084  -0.003138   0.000146   0.020116  -0.045996
     27       0.134821   0.079147   0.009625   0.008896  -0.092689  -0.088439
     28       0.252111   0.467320   0.002145   0.016938  -0.384194  -0.404593
     29       0.206197   0.375843  -0.004021   0.005853   0.583986   0.566301
     30       0.134821   0.079147  -0.009625   0.008896  -0.092689   0.088439
     31       0.252111   0.467320  -0.002145   0.016938  -0.384194   0.404593
     32      -0.206197  -0.375843  -0.004021  -0.005853  -0.583986   0.566301
     33       0.040644  -0.018596  -0.000000   0.011325   0.006597  -0.000000
     34       0.036244  -0.018446  -0.000000   0.010455   0.001576  -0.000000
     35      -0.000000   0.000000   0.000701   0.000000  -0.000000   0.004803
                 30         31         32         33         34         35    
      0      -0.000506   0.000000  -0.037643   0.000000   0.028739  -0.000196
      1      -0.002254   0.000000  -0.017909   0.000000  -0.075397  -0.000000
      2      -0.000000   0.003501  -0.000000  -0.080723  -0.000000  -0.000000
      3       0.014242   0.000000  -0.001567   0.000000  -0.000330  -0.000194
      4       0.066847   0.000000  -0.001610   0.000000  -0.000917   0.000130
      5       0.000000  -0.096915   0.000000  -0.002590   0.000000  -0.000000
      6       0.001034  -0.000000   0.000153  -0.000000  -0.000244  -0.000458
      7       0.001722  -0.000000   0.000823  -0.000000   0.000515  -0.001600
      8      -0.000000  -0.007949  -0.000000   0.000863  -0.000000   0.000000
      9      -0.000085   0.000000   0.000171  -0.000000  -0.000078   0.046886
     10      -0.000016  -0.000000  -0.000056  -0.000000  -0.000073  -0.041817
     11       0.000000   0.000123   0.000000  -0.000060   0.000000   0.000000
     12       0.004065   0.000000   0.323927   0.000000  -0.539459   0.000355
     13       0.006114   0.000000  -0.412253   0.000000   0.657261  -0.000712
     14       0.000000   0.001044   0.000000  -0.016427  -0.000000  -0.000000
     15      -0.000762  -0.005043   0.101419  -0.129028   0.072706   0.000768
     16       0.006626   0.009712   0.331537  -0.397782   0.193004   0.000550
     17      -0.012270  -0.018026  -0.491277   0.566823  -0.304317  -0.001020
     18      -0.000762   0.005043   0.101419   0.129028   0.072706   0.000768
     19       0.006626  -0.009712   0.331537   0.397782   0.193004   0.000550
     20       0.012270  -0.018026   0.491277   0.566823   0.304317   0.001020
     21      -0.085198  -0.082490   0.005259  -0.004903   0.001986  -0.000222
     22      -0.387035  -0.398445   0.005937  -0.010508   0.006091   0.000038
     23       0.582931   0.571115  -0.007730   0.016785  -0.007001  -0.000383
     24      -0.085198   0.082490   0.005259   0.004903   0.001986  -0.000222
     25      -0.387035   0.398445   0.005937   0.010508   0.006091   0.000038
     26      -0.582931   0.571115   0.007730   0.016785   0.007001   0.000383
     27      -0.002102  -0.003214  -0.000970   0.001542  -0.000796  -0.004160
     28      -0.014767  -0.032380  -0.001165   0.001443  -0.000967  -0.001572
     29       0.018724   0.044995   0.002129  -0.003967   0.001696   0.001525
     30      -0.002102   0.003214  -0.000970  -0.001542  -0.000796  -0.004160
     31      -0.014767   0.032380  -0.001165  -0.001443  -0.000967  -0.001572
     32      -0.018724   0.044995  -0.002129  -0.003967  -0.001696  -0.001525
     33      -0.001588  -0.000000   0.001880  -0.000000   0.000408  -0.726808
     34      -0.001237  -0.000000  -0.001227  -0.000000   0.000130   0.683923
     35      -0.000000   0.001707  -0.000000   0.000393   0.000000   0.000000


-----------
IR SPECTRUM
-----------

 Mode    freq (cm**-1)   T**2         TX         TY         TZ
-------------------------------------------------------------------
   6:        87.83    7.113879  (  0.000000  -0.000000  -2.667186)
   7:       213.56    0.043445  ( -0.000000   0.000000   0.208435)
   8:       252.05  138.577065  ( -0.000000   0.000000 -11.771876)
   9:       266.69    3.392372  (  0.399947   1.797892  -0.000000)
  10:       461.08   32.137085  ( -5.661758   0.285616  -0.000000)
  11:       798.05    2.949280  ( -0.000000   0.000000  -1.717347)
  12:       899.87   30.453616  ( -5.200229   1.846953   0.000000)
  13:       936.62   13.494081  (  0.000000  -0.000000   3.673429)
  14:      1006.76    7.617863  (  1.771513   2.116508   0.000000)
  15:      1093.49   74.204254  (  5.999289   6.181649   0.000000)
  16:      1165.77   25.832847  (  5.082517  -0.029420   0.000000)
  17:      1189.64    0.043352  ( -0.000000   0.000000   0.208210)
  18:      1267.46   56.064792  ( -6.888729  -2.934316  -0.000000)
  19:      1295.62    0.065999  (  0.000000  -0.000000   0.256902)
  20:      1337.27    9.435174  ( -0.000000   0.000000  -3.071673)
  21:      1386.07    3.278150  (  0.407589  -1.764092  -0.000000)
  22:      1481.18    4.927485  (  1.309152   1.792653   0.000000)
  23:      1495.46   10.651159  (  0.029841  -3.263475  -0.000000)
  24:      1513.63  109.122612  (-10.297345  -1.757071  -0.000000)
  25:      1525.74   33.302163  (  5.059797   2.774998   0.000000)
  26:      1659.96   53.477709  ( -0.000000   0.000000   7.312845)
  27:      1665.37   40.987393  ( -2.528412   5.881711  -0.000000)
  28:      2979.62   45.398137  (  4.615720   4.908489  -0.000000)
  29:      3013.96   27.140446  ( -0.000000   0.000000  -5.209649)
  30:      3110.88    0.193870  ( -0.297443   0.324649  -0.000000)
  31:      3174.48    0.040785  ( -0.000000   0.000000   0.201953)
  32:      3420.46   45.368099  (  6.534748   1.632533  -0.000000)
  33:      3496.58   99.117644  ( -0.000000   0.000000   9.955784)
  34:      3504.59  116.317104  ( -4.411313   9.841617  -0.000000)
  35:      3863.09  115.430539  ( -9.676294   4.669033   0.000000)

The first frequency considered to be a vibration is 6
The total number of vibrations considered is 30


--------------------------
THERMOCHEMISTRY AT 298.15K
--------------------------

Temperature         ... 298.15 K
Pressure            ... 1.00 atm
Total Mass          ... 62.09 AMU

Throughout the following assumptions are being made:
  (1) The electronic state is orbitally nondegenerate
  (2) There are no thermally accessible electronically excited states
  (3) Hindered rotations indicated by low frequency modes) are not
      treated as such but are treated as vibrations and this may
      case some error
  (4) All equations used are the standard statistical mechanics
      equations for an ideal gas
  (5) All vibrations are strinctly harmonic


------------
INNER ENERGY
------------

The inner energy is: U= E(el) + E(ZPE) + E(vib) + E(rot) + E(trans)
    E(el)   - is the total energy from the electronic structure calculation
              = E(kin-el) + E(nuc-el) + E(el-el) + E(nuc-nuc)
    E(ZPE)  - the the zero temperature vibrational energy from the frequency calculation
    E(vib)  - the the finite temperature correction to E(ZPE) due to population
              of excietd vibrational states
    E(rot)  - is the rotational thermal energy
    E(trans)- is the translational thermal energy

Summary of contributions to the inner energy U:
Electronic energy                ...   -210.58630290 Eh
Zero point energy                ...      0.11291248 Eh      70.85 kcal/mol
Thermal vibrational correction   ...      0.00284386 Eh       1.78 kcal/mol
Thermal rotational correction    ...      0.00141627 Eh       0.89 kcal/mol
Thermal translational correction ...      0.00141627 Eh       0.89 kcal/mol
-----------------------------------------------------------------------
Total thermal energy                   -210.46771401 Eh


Summary of corrections to the electronic energy:
(perhaps to be used in another calculation)
Total thermal correction                  0.00567641 Eh       3.56 kcal/mol
Non-thermal (ZPE) correction              0.11291248 Eh      70.85 kcal/mol
-----------------------------------------------------------------------
Total correction                          0.11858889 Eh      74.42 kcal/mol


--------
ENTHALPY
--------

The enthalpy is H = U + kB*T
                kB is Boltzmann's constant
Total free energy                 ...   -210.46771401 Eh 
Thermal Enthalpy correction       ...      0.00094421 Eh       0.59 kcal/mol
-----------------------------------------------------------------------
Total Enthalpy                    ...   -210.46676980 Eh


-------
ENTROPY
-------

The entropy contributions are T*S = T*(S(el)+S(vib)+S(rot)+S(trans)
     S(el)   - electronic entropy
     S(vib)  - vibrational entropy
     S(rot)  - rotational entropy
     S(trans)- translational entropy
The entropies will be listed as mutliplied by the temperature to get
units of energy

Electronic entropy                ...      0.00000000 Eh      0.00 kcal/mol
Vibrational entropy               ...      0.00508038 Eh      3.19 kcal/mol
Rotational entropy                ...      0.01051129 Eh      6.60 kcal/mol
Translational entropy             ...      0.01819631 Eh     11.42 kcal/mol
-----------------------------------------------------------------------
Final entropy term                ...      0.03378799 Eh     21.20 kcal/mol


CAUTION: The rotational entropy is not quite correctly treated here
         because it includes a symmetry number that is not yet correctly
         implemented in ORCA!
For a nonlinear molecule the correct rotational entropy is:
    S(rot) = R*(ln(qrot/sn)+1.5)
    R    = 8.31441 J/mol/K = 1.987191683e-3 kcal/mol/K
    qrot = 45767.2556637
    sn is the rotational symmetry number. We have assumed 3 here
       if it is different for your molecule then you should correct
       the printed rotational entropy by manually evaluating the equation
       as given above

For convenience we print out the resulting values for sn=1 - 12:
 sn= 1  qrot/sn=   45767.2557 T*S(rot)=     7.25 kcal/mol T*S(tot)=    21.85 kcal/mol
 sn= 2  qrot/sn=   22883.6278 T*S(rot)=     6.84 kcal/mol T*S(tot)=    21.44 kcal/mol
 sn= 3  qrot/sn=   15255.7519 T*S(rot)=     6.60 kcal/mol T*S(tot)=    21.20 kcal/mol
 sn= 4  qrot/sn=   11441.8139 T*S(rot)=     6.43 kcal/mol T*S(tot)=    21.03 kcal/mol
 sn= 5  qrot/sn=    9153.4511 T*S(rot)=     6.29 kcal/mol T*S(tot)=    20.90 kcal/mol
 sn= 6  qrot/sn=    7627.8759 T*S(rot)=     6.19 kcal/mol T*S(tot)=    20.79 kcal/mol
 sn= 7  qrot/sn=    6538.1794 T*S(rot)=     6.09 kcal/mol T*S(tot)=    20.70 kcal/mol
 sn= 8  qrot/sn=    5720.9070 T*S(rot)=     6.01 kcal/mol T*S(tot)=    20.62 kcal/mol
 sn= 9  qrot/sn=    5085.2506 T*S(rot)=     5.95 kcal/mol T*S(tot)=    20.55 kcal/mol
 sn=10  qrot/sn=    4576.7256 T*S(rot)=     5.88 kcal/mol T*S(tot)=    20.49 kcal/mol
 sn=11  qrot/sn=    4160.6596 T*S(rot)=     5.83 kcal/mol T*S(tot)=    20.43 kcal/mol
 sn=12  qrot/sn=    3813.9380 T*S(rot)=     5.77 kcal/mol T*S(tot)=    20.38 kcal/mol


-------------------
GIBBS FREE ENTHALPY
-------------------

The Gibbs free enthalpy is G = H - T*S

Total enthalpy                    ...   -210.46676980 Eh 
Total entropy correction          ...     -0.03378799 Eh    -21.20 kcal/mol
-----------------------------------------------------------------------
Final Gibbs free enthalpy         ...   -210.50055779 Eh

For completeness - the Gibbs free enthalpy minus the electronic energy
G-E(el)                           ...      0.08574511 Eh     53.81 kcal/mol


Timings for individual modules:

Sum of individual times         ...      291.100 sec (=   4.852 min)
GTO integral calculation        ...        4.991 sec (=   0.083 min)   1.7 %
SCF iterations                  ...       34.519 sec (=   0.575 min)  11.9 %
SCF Gradient evaluation         ...       16.837 sec (=   0.281 min)   5.8 %
Geometry relaxation             ...        0.107 sec (=   0.002 min)   0.0 %
Analytical frequency calculation...      234.646 sec (=   3.911 min)  80.6 %
                             ****ORCA TERMINATED NORMALLY****
TOTAL RUN TIME: 0 days 0 hours 4 minutes 52 seconds 525 msec
