
                                 *****************
                                 * O   R   C   A *
                                 *****************

           --- An Ab Initio, DFT and Semiempirical electronic structure package ---

                  #######################################################
                  #                        -***-                        #
                  #  Department of molecular theory and spectroscopy    #
                  #              Directorship: Frank Neese              #
                  # Max Planck Institute for Chemical Energy Conversion #
                  #                  D-45470 Muelheim/Ruhr              #
                  #                       Germany                       #
                  #                                                     #
                  #                  All rights reserved                #
                  #                        -***-                        #
                  #######################################################


                         Program Version 3.0.3 - RELEASE   -


 With contributions from (in alphabetic order):
   Ute Becker             : Parallelization
   Dmytro Bykov           : SCF Hessian
   Dmitry Ganyushin       : Spin-Orbit,Spin-Spin,Magnetic field MRCI
   Andreas Hansen         : Spin unrestricted coupled pair/coupled cluster methods
   Dimitrios Liakos       : Extrapolation schemes; parallel MDCI
   Robert Izsak           : Overlap fitted RIJCOSX, COSX-SCS-MP3
   Christian Kollmar      : KDIIS, OOCD, Brueckner-CCSD(T), CCSD density
   Simone Kossmann        : Meta GGA functionals, TD-DFT gradient, OOMP2, MP2 Hessian
   Taras Petrenko         : DFT Hessian,TD-DFT gradient, ASA and ECA modules, normal mode analysis, Resonance Raman, ABS, FL, XAS/XES, NRVS
   Christoph Reimann      : Effective Core Potentials
   Michael Roemelt        : Restricted open shell CIS
   Christoph Riplinger    : Improved optimizer, TS searches, QM/MM, DLPNO-CCSD
   Barbara Sandhoefer     : DKH picture change effects
   Igor Schapiro          : Molecular dynamics
   Kantharuban Sivalingam : CASSCF convergence, NEVPT2
   Boris Wezisla          : Elementary symmetry handling
   Frank Wennmohs         : Technical directorship


 We gratefully acknowledge several colleagues who have allowed us to
 interface, adapt or use parts of their codes:
   Stefan Grimme, W. Hujo, H. Kruse, T. Risthaus : VdW corrections, initial TS optimization,
                                                   DFT functionals, gCP
   Ed Valeev                                     : LibInt (2-el integral package), F12 methods
   Garnet Chan, S. Sharma, R. Olivares           : DMRG
   Ulf Ekstrom                                   : XCFun DFT Library
   Mihaly Kallay                                 : mrcc  (arbitrary order and MRCC methods)
   Andreas Klamt, Michael Diedenhofen            : otool_cosmo (COSMO solvation model)
   Frank Weinhold                                : gennbo (NPA and NBO analysis)
   Christopher J. Cramer and Donald G. Truhlar   : smd solvation model


 Your calculation uses the libint2 library for the computation of 2-el integrals
 For citations please refer to: http://libint.valeyev.net

 This ORCA versions uses:
   CBLAS   interface :  Fast vector & matrix operations
   LAPACKE interface :  Fast linear algebra routines
   SCALAPACK package :  Parallel linear algebra routines


Your calculation utilizes the basis: Ahlrichs-TZV
Cite in your paper:
H - Kr: A. Schaefer, H. Horn and R. Ahlrichs, J. Chem. Phys. 97, 2571 (1992).

The def2-TZV basis will be loaded
Cite in your paper:
 	F. Weigend, R. Ahlrichs, Phys. Chem. Chem. Phys. 2005, 7, 3297.

================================================================================
                                        WARNINGS
                       Please study these warnings very carefully!
================================================================================
Now building the actual basis set
WARNING: Geometry optimizations can change the point-group symmetry!

WARNING: Geometry Optimization
  ===> : Switching off AutoStart
         For restart on a previous wavefunction, please use MOREAD


INFO   : the flag for use of LIBINT has been found!

================================================================================
                                       INPUT FILE
================================================================================
NAME = 0132_+.inp
|  1> ! NORI PBE0 def2-TZVP UseSym TightOPT Freq TightSCF Grid3 FinalGrid5 XYZFile
|  2> % pal
|  3>     nprocs 8
|  4> end
|  5> %method
|  6>     SymThresh 5.0e-2
|  7> end
|  8> % geom 
|  9>     MaxIter 10
| 10> end 
| 11> % maxcore 2000
| 12> % output
| 13>     printlevel mini
| 14>     print[ P_Basis ] 0
| 15>     print[ P_SCFInfo ] 1
| 16>     print[ P_SCFIterInfo ] 1
| 17>     print[ P_OrbEn ] 0
| 18>     print[ P_Cartesian ] 0
| 19> end
| 20> % elprop
| 21>     Dipole false
| 22> end
| 23> *xyz 1 1
| 24>  N        1.0667905410     0.0685002963    -0.0616037706 
| 25>  C        2.5759312040     0.0864063782    -0.0244111332 
| 26>  C        3.0857525035    -0.3262320389     1.3428272249 
| 27>  C        4.5832941029    -0.3864796763     1.3400387680 
| 28>  C        5.3554541373     0.4273418386     2.0423038892 
| 29>  H        0.7040606504     0.3467030038    -0.9757505958 
| 30>  H        0.6776051044     0.7061438896     0.6364171745 
| 31>  H        0.7080724967    -0.8660788312     0.1468302395 
| 32>  H        2.8829358208     1.0999486441    -0.2831041470 
| 33>  H        2.9107931321    -0.5916367686    -0.8104231725 
| 34>  H        2.6767806477    -1.3114570046     1.6032120427 
| 35>  H        2.7460507236     0.3856428642     2.1019764495 
| 36>  H        5.0319110193    -1.1589339812     0.7198442575 
| 37>  H        4.9434072550     1.2005526155     2.6836424578 
| 38>  H        6.4350506612     0.3411687705     2.0123903155 
| 39> *
| 40> 
| 41>                          ****END OF INPUT****
================================================================================

The point group is C1 - hence turning off symmetry
If this is a round-off problem, please increase the symmetry
        detection tolerance (%method SymThresh)


                       *****************************
                       * Geometry Optimization Run *
                       *****************************

Geometry optimization settings:
Update method            Update   .... BFGS
Choice of coordinates    CoordSys .... Redundant Internals
Initial Hessian          InHess   .... Almoef's Model

Convergence Tolerances:
Energy Change            TolE     ....  1.0000e-06 Eh
Max. Gradient            TolMAXG  ....  1.0000e-04 Eh/bohr
RMS Gradient             TolRMSG  ....  3.0000e-05 Eh/bohr
Max. Displacement        TolMAXD  ....  1.0000e-03 bohr
RMS Displacement         TolRMSD  ....  6.0000e-04 bohr

------------------------------------------------------------------------------
                        ORCA OPTIMIZATION COORDINATE SETUP
------------------------------------------------------------------------------

The optimization will be done in new redundant internal coordinates
Making redundant internal coordinates   ...  (new redundants) done
Evaluating the initial hessian          ...  (Almloef) done
Evaluating the coordinates              ...  done
Calculating the B-matrix                .... done
Calculating the G-matrix                .... done
Diagonalizing the G-matrix              .... done
The first mode is                       ....   27
The number of degrees of freedom        ....   39

    -----------------------------------------------------------------
                    Redundant Internal Coordinates


    -----------------------------------------------------------------
         Definition                    Initial Value    Approx d2E/dq
    -----------------------------------------------------------------
      1. B(C   1,N   0)                  1.5097         0.360490   
      2. B(C   2,C   1)                  1.5164         0.392685   
      3. B(C   3,C   2)                  1.4988         0.419011   
      4. B(C   4,C   3)                  1.3235         0.797625   
      5. B(H   5,N   0)                  1.0221         0.413935   
      6. B(H   6,N   0)                  1.0224         0.413449   
      7. B(H   7,N   0)                  1.0225         0.413246   
      8. B(H   8,C   1)                  1.0902         0.359893   
      9. B(H   9,C   1)                  1.0907         0.359137   
     10. B(H  10,C   2)                  1.0981         0.349599   
     11. B(H  11,C   2)                  1.0947         0.353875   
     12. B(H  12,C   3)                  1.0875         0.363467   
     13. B(H  13,C   4)                  1.0858         0.365705   
     14. B(H  14,C   4)                  1.0834         0.368879   
     15. A(H   5,N   0,H   6)          107.8052         0.298942   
     16. A(C   1,N   0,H   5)          111.9359         0.325139   
     17. A(C   1,N   0,H   7)          110.8856         0.325050   
     18. A(C   1,N   0,H   6)          110.8733         0.325077   
     19. A(H   5,N   0,H   7)          107.8543         0.298919   
     20. A(H   6,N   0,H   7)          107.2969         0.298863   
     21. A(H   8,C   1,H   9)          108.6926         0.290691   
     22. A(C   2,C   1,H   9)          112.1704         0.326847   
     23. A(N   0,C   1,H   9)          106.3657         0.320366   
     24. A(C   2,C   1,H   8)          111.8554         0.326960   
     25. A(N   0,C   1,H   8)          106.6599         0.320477   
     26. A(N   0,C   1,C   2)          110.7971         0.361972   
     27. A(C   1,C   2,H  10)          109.4351         0.325402   
     28. A(C   1,C   2,C   3)          110.1934         0.373770   
     29. A(C   3,C   2,H  11)          109.7234         0.329561   
     30. A(C   1,C   2,H  11)          110.1182         0.326054   
     31. A(C   3,C   2,H  10)          109.6651         0.328900   
     32. A(H  10,C   2,H  11)          107.6641         0.288702   
     33. A(C   2,C   3,C   4)          123.8648         0.423311   
     34. A(C   4,C   3,H  12)          119.9142         0.368983   
     35. A(C   2,C   3,H  12)          116.2197         0.331022   
     36. A(H  13,C   4,H  14)          116.8135         0.292653   
     37. A(C   3,C   4,H  14)          121.1838         0.369921   
     38. A(C   3,C   4,H  13)          121.9974         0.369372   
     39. D(C   2,C   1,N   0,H   7)    -59.6644         0.011945   
     40. D(C   2,C   1,N   0,H   6)     59.4196         0.011945   
     41. D(H   8,C   1,N   0,H   5)     57.8828         0.011945   
     42. D(H   9,C   1,N   0,H   6)   -178.4231         0.011945   
     43. D(H   9,C   1,N   0,H   5)    -58.0006         0.011945   
     44. D(C   2,C   1,N   0,H   5)    179.8421         0.011945   
     45. D(H   8,C   1,N   0,H   6)    -62.5397         0.011945   
     46. D(H   9,C   1,N   0,H   7)     62.4930         0.011945   
     47. D(H   8,C   1,N   0,H   7)    178.3763         0.011945   
     48. D(H  10,C   2,C   1,H   8)    174.6866         0.012252   
     49. D(H  10,C   2,C   1,N   0)     55.8208         0.012252   
     50. D(C   3,C   2,C   1,H   9)     57.7841         0.012252   
     51. D(C   3,C   2,C   1,H   8)    -64.6494         0.012252   
     52. D(H  10,C   2,C   1,H   9)    -62.8799         0.012252   
     53. D(C   3,C   2,C   1,N   0)    176.4849         0.012252   
     54. D(H  11,C   2,C   1,H   9)    178.9605         0.012252   
     55. D(H  11,C   2,C   1,H   8)     56.5270         0.012252   
     56. D(H  11,C   2,C   1,N   0)    -62.3387         0.012252   
     57. D(H  12,C   3,C   2,H  11)    172.0140         0.012984   
     58. D(H  12,C   3,C   2,H  10)     53.9516         0.012984   
     59. D(H  12,C   3,C   2,C   1)    -66.5742         0.012984   
     60. D(C   4,C   3,C   2,H  11)     -7.5808         0.012984   
     61. D(C   4,C   3,C   2,H  10)   -125.6431         0.012984   
     62. D(C   4,C   3,C   2,C   1)    113.8311         0.012984   
     63. D(H  14,C   4,C   3,H  12)      0.0541         0.045944   
     64. D(H  14,C   4,C   3,C   2)    179.6346         0.045944   
     65. D(H  13,C   4,C   3,H  12)   -179.0847         0.045944   
     66. D(H  13,C   4,C   3,C   2)      0.4958         0.045944   
    -----------------------------------------------------------------

Number of atoms                         .... 15
Number of degrees of freedom            .... 66

         *************************************************************
         *                GEOMETRY OPTIMIZATION CYCLE   1            *
         *************************************************************


           ************************************************************
           *        Program running with 8 parallel MPI-processes     *
           *              working on a common directory               *
           ************************************************************
           ************************************************************
           *              Shut down parallel processing               *
           ************************************************************


           ************************************************************
           *        Program running with 8 parallel MPI-processes     *
           *              working on a common directory               *
           ************************************************************
------------
SCF SETTINGS
------------
Hamiltonian:
 Density Functional     Method          .... DFT(GTOs)
 Exchange Functional    Exchange        .... PBE
   PBE kappa parameter  XKappa          ....  0.804000
 Correlation Functional Correlation     .... PBE
 LDA part of GGA corr.  LDAOpt          .... PW91-LDA
 Gradients option       PostSCFGGA      .... off
 Hybrid DFT is turned on
   Fraction HF Exchange ScalHFX         ....  0.250000
   Scaling of DF-GGA-X  ScalDFX         ....  0.750000
   Scaling of DF-GGA-C  ScalDFC         ....  1.000000
   Scaling of DF-LDA-C  ScalLDAC        ....  1.000000
   Perturbative correction              ....  0.000000
   NL short-range parameter             ....  6.900000


General Settings:
 Integral files         IntName         .... 0132_+
 Hartree-Fock type      HFTyp           .... RHF
 Total Charge           Charge          ....    1
 Multiplicity           Mult            ....    1
 Number of Electrons    NEL             ....   40
 Basis Dimension        Dim             ....  215
 Nuclear Repulsion      ENuc            ....    180.1481728134 Eh

Convergence Acceleration:
 DIIS                   CNVDIIS         .... on
   Start iteration      DIISMaxIt       ....    12
   Startup error        DIISStart       ....  0.200000
   # of expansion vecs  DIISMaxEq       ....     5
   Bias factor          DIISBfac        ....   1.050
   Max. coefficient     DIISMaxC        ....  10.000
 Newton-Raphson         CNVNR           .... off
 SOSCF                  CNVSOSCF        .... on
   Start iteration      SOSCFMaxIt      ....   150
   Startup grad/error   SOSCFStart      ....  0.003300
 Level Shifting         CNVShift        .... on
   Level shift para.    LevelShift      ....    0.2500
   Turn off err/grad.   ShiftErr        ....    0.0010
 Zerner damping         CNVZerner       .... off
 Static damping         CNVDamp         .... on
   Fraction old density DampFac         ....    0.7000
   Max. Damping (<1)    DampMax         ....    0.9800
   Min. Damping (>=0)   DampMin         ....    0.0000
   Turn off err/grad.   DampErr         ....    0.1000
 Fernandez-Rico         CNVRico         .... off

SCF Procedure:
 Maximum # iterations   MaxIter         ....   125
 SCF integral mode      SCFMode         .... Direct
   Integral package                     .... LIBINT
 Reset frequeny         DirectResetFreq ....    20
 Integral Threshold     Thresh          ....  2.500e-11 Eh
 Primitive CutOff       TCut            ....  2.500e-12 Eh

Convergence Tolerance:
 Convergence Check Mode ConvCheckMode   .... Total+1el-Energy
 Energy Change          TolE            ....  1.000e-08 Eh
 1-El. energy change                    ....  1.000e-05 Eh
 Orbital Gradient       TolG            ....  1.000e-05
 Orbital Rotation angle TolX            ....  1.000e-05
 DIIS Error             TolErr          ....  5.000e-07


Diagonalization of the overlap matrix:
Smallest eigenvalue                        ... 1.657e-04
Time for diagonalization                   ...    0.015 sec
Threshold for overlap eigenvalues          ... 1.000e-08
Number of eigenvalues below threshold      ... 0
Time for construction of square roots      ...    0.005 sec
Total time needed                          ...    0.020 sec

-------------------
DFT GRID GENERATION
-------------------

General Integration Accuracy     IntAcc      ...  4.340
Radial Grid Type                 RadialGrid  ... Gauss-Chebyshev
Angular Grid (max. acc.)         AngularGrid ... Lebedev-194
Angular grid pruning method      GridPruning ... 3 (G Style)
Weight generation scheme         WeightScheme... Becke
Basis function cutoff            BFCut       ...    1.0000e-11
Integration weight cutoff        WCut        ...    1.0000e-14
Grids for H and He will be reduced by one unit

# of grid points (after initial pruning)     ...  31730 (   0.0 sec)
# of grid points (after weights+screening)   ...  29558 (   0.0 sec)
nearest neighbour list constructed           ...    0.0 sec
Grid point re-assignment to atoms done       ...    0.0 sec
Grid point division into batches done        ...    0.0 sec
Reduced shell lists constructed in    0.1 sec

Total number of grid points                  ...    29558
Total number of batches                      ...      469
Average number of points per batch           ...       63
Average number of grid points per atom       ...     1971
Average number of shells per batch           ...    78.35 (82.47%)
Average number of basis functions per batch  ...   181.45 (84.40%)
Average number of large shells per batch     ...    67.03 (85.56%)
Average number of large basis fcns per batch ...   156.17 (86.07%)
Maximum spatial batch extension              ...   1.85,  1.90,  2.34 au
Average spatial batch extension              ...   0.14,  0.13,  0.14 au

Time for grid setup =    0.139 sec

Loading Hartree-Fock densities                     ... done
Calculating cut-offs                               ... done
Setting up the integral package                    ... done
Initializing the effective Hamiltonian             ... done
Starting the Coulomb interaction                   ... done (   0.0 sec)
Reading the grid                                   ... done
Mapping shells                                     ... done
Starting the XC term evaluation                    ... done (   0.1 sec)
  promolecular density results
     # of electrons  =     40.993809286
     EX              =    -29.964916051
     EC              =     -1.322675822
     EX+EC           =    -31.287591872
Transforming the Hamiltonian                       ... done (   0.0 sec)
Diagonalizing the Hamiltonian                      ... done (   0.0 sec)
Back transforming the eigenvectors                 ... done (   0.0 sec)
Now organizing SCF variables                       ... done
--------------
SCF ITERATIONS
--------------
ITER       Energy         Delta-E        Max-DP      RMS-DP      [F,P]     Damp
               ***  Starting incremental Fock matrix formation  ***
  0   -212.6086515865   0.000000000000 0.03203367  0.00086342  0.1521380 0.7000
  1   -212.6686202662  -0.059968679655 0.02297503  0.00070677  0.0842200 0.7000
                               ***Turning on DIIS***
  2   -212.6959708597  -0.027350593468 0.05071533  0.00141972  0.0352841 0.0000
  3   -212.7350755867  -0.039104727046 0.01619187  0.00044637  0.0450958 0.0000
  4   -212.7449247036  -0.009849116914 0.00723918  0.00015889  0.0080990 0.0000
                      *** Initiating the SOSCF procedure ***
                           *** Shutting down DIIS ***
                      *** Re-Reading the Fockian *** 
                      *** Removing any level shift *** 
ITER      Energy       Delta-E        Grad      Rot      Max-DP    RMS-DP
  5   -212.74528629  -0.0003615876  0.000505  0.000505  0.002602  0.000064
               *** Restarting incremental Fock matrix formation ***
  6   -212.74530905  -0.0000227569  0.000364  0.001284  0.002084  0.000046
  7   -212.74530917  -0.0000001215  0.000504  0.000736  0.000402  0.000009
  8   -212.74531198  -0.0000028058  0.000073  0.000145  0.000295  0.000006
  9   -212.74531193   0.0000000450  0.000062  0.000072  0.000090  0.000002
 10   -212.74531207  -0.0000001437  0.000007  0.000008  0.000030  0.000001
 11   -212.74531207  -0.0000000005  0.000006  0.000004  0.000010  0.000000
                  ***Gradient check signals convergence***
              ***Rediagonalizing the Fockian in SOSCF/NRSCF***

               *****************************************************
               *                     SUCCESS                       *
               *           SCF CONVERGED AFTER  12 CYCLES          *
               *****************************************************

Setting up the final grid:

General Integration Accuracy     IntAcc      ...  5.010
Radial Grid Type                 RadialGrid  ... Gauss-Chebyshev
Angular Grid (max. acc.)         AngularGrid ... Lebedev-434
Angular grid pruning method      GridPruning ... 3 (G Style)
Weight generation scheme         WeightScheme... Becke
Basis function cutoff            BFCut       ...    1.0000e-11
Integration weight cutoff        WCut        ...    1.0000e-14
Grids for H and He will be reduced by one unit

# of grid points (after initial pruning)     ... 120302 (   0.0 sec)
# of grid points (after weights+screening)   ... 110722 (   0.1 sec)
nearest neighbour list constructed           ...    0.0 sec
Grid point re-assignment to atoms done       ...    0.0 sec
Grid point division into batches done        ...    0.8 sec
Reduced shell lists constructed in    0.9 sec

Total number of grid points                  ...   110722
Total number of batches                      ...     1737
Average number of points per batch           ...       63
Average number of grid points per atom       ...     7381
Average number of shells per batch           ...    78.60 (82.74%)
Average number of basis functions per batch  ...   182.64 (84.95%)
Average number of large shells per batch     ...    66.31 (84.36%)
Average number of large basis fcns per batch ...   154.73 (84.72%)
Maximum spatial batch extension              ...   2.26,  1.71,  2.31 au
Average spatial batch extension              ...   0.10,  0.09,  0.10 au

Final grid set up in    1.0 sec
Final integration                            ... done (   0.4 sec)
Change in XC energy                          ...     0.000212034
Integrated number of electrons               ...    40.000027899
Previous integrated no of electrons          ...    39.999425577
Total Energy       :         -212.74510004 Eh           -5789.08848 eV
  Last Energy change         ...   -7.4706e-10  Tolerance :   1.0000e-08
  Last MAX-Density change    ...    2.5231e-06  Tolerance :   1.0000e-07
             **** THE GBW FILE WAS UPDATED (0132_+.gbw) ****
             **** DENSITY FILE WAS UPDATED (0132_+.scfp.tmp) ****
             **** ENERGY FILE WAS UPDATED (0132_+.en.tmp) ****
Total SCF time: 0 days 0 hours 0 min 29 sec 
           ************************************************************
           *              Shut down parallel processing               *
           ************************************************************

-------------------------   --------------------
FINAL SINGLE POINT ENERGY      -212.745100041624
-------------------------   --------------------



           ************************************************************
           *        Program running with 8 parallel MPI-processes     *
           *              working on a common directory               *
           ************************************************************
------------------------------------------------------------------------------
                         ORCA SCF GRADIENT CALCULATION
------------------------------------------------------------------------------

Gradient of the Kohn-Sham DFT energy:
Kohn-Sham wavefunction type      ... RKS
Hartree-Fock exchange scaling    ...    0.250
Number of operators              ...    1
Number of atoms                  ...   15
Basis set dimensions             ...  215
Integral neglect threshold       ... 2.5e-11
Integral primitive cutoff        ... 2.5e-12

Nuclear repulsion gradient       ... done
One Electron Gradient            ... done
Pre-screening matrix             ... done
Starting the two electron gradient:
Two electron gradient done
Exchange-correlation gradient    ... done

------------------
CARTESIAN GRADIENT
------------------

   1   N   :    0.000069397   -0.000071489   -0.000237099
   2   C   :    0.000098585    0.000018658    0.000179926
   3   C   :   -0.000212956   -0.000105772   -0.000110927
   4   C   :   -0.000092085   -0.000179467    0.000015910
   5   C   :    0.000016158    0.000212462    0.000323476
   6   H   :   -0.000037842    0.000018598    0.000023759
   7   H   :    0.000030990    0.000048711    0.000022832
   8   H   :    0.000008857    0.000035334    0.000033551
   9   H   :   -0.000011341    0.000066423   -0.000018888
  10   H   :   -0.000063017   -0.000069211    0.000018163
  11   H   :    0.000045645   -0.000017277    0.000043145
  12   H   :    0.000053817    0.000116604    0.000006414
  13   H   :    0.000017245    0.000029759   -0.000033469
  14   H   :   -0.000032436   -0.000125592   -0.000005698
  15   H   :    0.000108985    0.000022258   -0.000261095

Norm of the cartesian gradient     ...    0.000715210
RMS gradient                       ...    0.000106617
MAX gradient                       ...    0.000323476

-------
TIMINGS
-------

Total SCF gradient time            ...       13.322 sec

One electron gradient       ....       0.063 sec  (  0.5%)
Prescreening matrices       ....       0.164 sec  (  1.2%)
Two electron gradient       ....      10.705 sec  ( 80.4%)
XC gradient                 ....       2.109 sec  ( 15.8%)
           ************************************************************
           *              Shut down parallel processing               *
           ************************************************************
------------------------------------------------------------------------------
                         ORCA GEOMETRY RELAXATION STEP
------------------------------------------------------------------------------

Reading the OPT-File                    .... done
Getting information on internals        .... done
Copying old internal coords+grads       .... done
Making the new internal coordinates     .... (new redundants).... done
Validating the new internal coordinates .... (new redundants).... done
Calculating the B-matrix                .... done
Calculating the G,G- and P matrices     .... done
Transforming gradient to internals      .... done
Projecting the internal gradient        .... done
Number of atoms                         ....  15
Number of internal coordinates          ....  66
Current Energy                          ....  -212.745100042 Eh
Current gradient norm                   ....     0.000715210 Eh/bohr
Maximum allowed component of the step   ....  0.300
Current trust radius                    ....  0.300
Evaluating the initial hessian          ....  (Almloef) done
Projecting the Hessian                  .... done
Forming the augmented Hessian           .... done
Diagonalizing the augmented Hessian     .... done
Last element of RFO vector              ....  0.999986527
Lowest eigenvalues of augmented Hessian:
 -0.000001060  0.011945112  0.012252104  0.012984587  0.026717565
Length of the computed step             ....  0.005191015
The final length of the internal step   ....  0.005191015
Converting the step to cartesian space:
 Initial RMS(Int)=    0.0006389697
Transforming coordinates:
 Iter   0:  RMS(Cart)=    0.0014502425 RMS(Int)=    0.0006388904
 Iter   1:  RMS(Cart)=    0.0000010253 RMS(Int)=    0.0000006870
 Iter   2:  RMS(Cart)=    0.0000000015 RMS(Int)=    0.0000000007
done
Storing new coordinates                 .... done

                                .--------------------.
          ----------------------|Geometry convergence|---------------------
          Item                value                 Tolerance   Converged
          -----------------------------------------------------------------
          RMS gradient        0.00006260            0.00003000      NO
          MAX gradient        0.00028367            0.00010000      NO
          RMS step            0.00063897            0.00060000      NO
          MAX step            0.00202192            0.00100000      NO
          ....................................................
          Max(Bonds)      0.0004      Max(Angles)    0.02
          Max(Dihed)        0.12      Max(Improp)    0.00
          -----------------------------------------------------------------

The optimization has not yet converged - more geometry cycles are needed


    ---------------------------------------------------------------------------
                         Redundant Internal Coordinates
                            (Angstroem and degrees)

        Definition                    Value    dE/dq     Step     New-Value
    ----------------------------------------------------------------------------
     1. B(C   1,N   0)                1.5097 -0.000171  0.0003    1.5100   
     2. B(C   2,C   1)                1.5164  0.000076 -0.0001    1.5163   
     3. B(C   3,C   2)                1.4988 -0.000030  0.0000    1.4988   
     4. B(C   4,C   3)                1.3235 -0.000132  0.0001    1.3236   
     5. B(H   5,N   0)                1.0221 -0.000013  0.0000    1.0221   
     6. B(H   6,N   0)                1.0224 -0.000053  0.0001    1.0225   
     7. B(H   7,N   0)                1.0225  0.000033 -0.0000    1.0225   
     8. B(H   8,C   1)                1.0902 -0.000060  0.0001    1.0902   
     9. B(H   9,C   1)                1.0907 -0.000096  0.0001    1.0909   
    10. B(H  10,C   2)                1.0981 -0.000026  0.0000    1.0981   
    11. B(H  11,C   2)                1.0947 -0.000124  0.0002    1.0949   
    12. B(H  12,C   3)                1.0875  0.000041 -0.0001    1.0874   
    13. B(H  13,C   4)                1.0858  0.000117 -0.0002    1.0856   
    14. B(H  14,C   4)                1.0834  0.000284 -0.0004    1.0830   
    15. A(H   5,N   0,H   6)          107.81 -0.000034    0.00    107.81   
    16. A(C   1,N   0,H   5)          111.94  0.000048   -0.01    111.93   
    17. A(C   1,N   0,H   7)          110.89  0.000002    0.00    110.89   
    18. A(C   1,N   0,H   6)          110.87  0.000034   -0.01    110.87   
    19. A(H   5,N   0,H   7)          107.85 -0.000041    0.01    107.87   
    20. A(H   6,N   0,H   7)          107.30 -0.000015    0.00    107.30   
    21. A(H   8,C   1,H   9)          108.69 -0.000009    0.00    108.70   
    22. A(C   2,C   1,H   9)          112.17  0.000029   -0.00    112.17   
    23. A(N   0,C   1,H   9)          106.37 -0.000023    0.01    106.37   
    24. A(C   2,C   1,H   8)          111.86 -0.000019    0.00    111.86   
    25. A(N   0,C   1,H   8)          106.66  0.000042   -0.01    106.65   
    26. A(N   0,C   1,C   2)          110.80 -0.000020    0.00    110.80   
    27. A(C   1,C   2,H  10)          109.44 -0.000016    0.01    109.45   
    28. A(C   1,C   2,C   3)          110.19 -0.000100    0.02    110.21   
    29. A(C   3,C   2,H  11)          109.72  0.000052   -0.02    109.71   
    30. A(C   1,C   2,H  11)          110.12  0.000039   -0.01    110.11   
    31. A(C   3,C   2,H  10)          109.67  0.000043   -0.00    109.66   
    32. A(H  10,C   2,H  11)          107.66 -0.000014   -0.00    107.66   
    33. A(C   2,C   3,C   4)          123.86  0.000149   -0.02    123.84   
    34. A(C   4,C   3,H  12)          119.91 -0.000100    0.01    119.93   
    35. A(C   2,C   3,H  12)          116.22 -0.000049    0.01    116.23   
    36. A(H  13,C   4,H  14)          116.81 -0.000031    0.01    116.82   
    37. A(C   3,C   4,H  14)          121.18 -0.000012    0.00    121.19   
    38. A(C   3,C   4,H  13)          122.00  0.000043   -0.01    121.99   
    39. D(C   2,C   1,N   0,H   7)    -59.66 -0.000020    0.03    -59.63   
    40. D(C   2,C   1,N   0,H   6)     59.42 -0.000015    0.03     59.45   
    41. D(H   8,C   1,N   0,H   5)     57.88  0.000006    0.03     57.91   
    42. D(H   9,C   1,N   0,H   6)   -178.42 -0.000005    0.03   -178.39   
    43. D(H   9,C   1,N   0,H   5)    -58.00  0.000008    0.02    -57.98   
    44. D(C   2,C   1,N   0,H   5)    179.84 -0.000002    0.02    179.87   
    45. D(H   8,C   1,N   0,H   6)    -62.54 -0.000006    0.03    -62.51   
    46. D(H   9,C   1,N   0,H   7)     62.49 -0.000010    0.03     62.53   
    47. D(H   8,C   1,N   0,H   7)    178.38 -0.000011    0.04    178.41   
    48. D(H  10,C   2,C   1,H   8)    174.69  0.000008    0.03    174.71   
    49. D(H  10,C   2,C   1,N   0)     55.82 -0.000019    0.04     55.86   
    50. D(C   3,C   2,C   1,H   9)     57.78 -0.000017    0.05     57.83   
    51. D(C   3,C   2,C   1,H   8)    -64.65 -0.000013    0.04    -64.61   
    52. D(H  10,C   2,C   1,H   9)    -62.88  0.000004    0.03    -62.85   
    53. D(C   3,C   2,C   1,N   0)    176.48 -0.000040    0.06    176.54   
    54. D(H  11,C   2,C   1,H   9)    178.96  0.000008    0.03    178.99   
    55. D(H  11,C   2,C   1,H   8)     56.53  0.000012    0.03     56.55   
    56. D(H  11,C   2,C   1,N   0)    -62.34 -0.000015    0.04    -62.30   
    57. D(H  12,C   3,C   2,H  11)    172.01 -0.000012    0.09    172.11   
    58. D(H  12,C   3,C   2,H  10)     53.95 -0.000051    0.10     54.06   
    59. D(H  12,C   3,C   2,C   1)    -66.57  0.000005    0.08    -66.50   
    60. D(C   4,C   3,C   2,H  11)     -7.58 -0.000018    0.10     -7.48   
    61. D(C   4,C   3,C   2,H  10)   -125.64 -0.000056    0.12   -125.53   
    62. D(C   4,C   3,C   2,C   1)    113.83  0.000000    0.09    113.92   
    63. D(H  14,C   4,C   3,H  12)      0.05 -0.000008    0.01      0.07   
    64. D(H  14,C   4,C   3,C   2)    179.63 -0.000002    0.00    179.64   
    65. D(H  13,C   4,C   3,H  12)   -179.08 -0.000034    0.05   -179.04   
    66. D(H  13,C   4,C   3,C   2)      0.50 -0.000028    0.03      0.53   
    ----------------------------------------------------------------------------

         *************************************************************
         *                GEOMETRY OPTIMIZATION CYCLE   2            *
         *************************************************************
---------------------------------
CARTESIAN COORDINATES (ANGSTROEM)
---------------------------------
  N     -0.000339   -0.000243    2.352142
  C      0.575232    0.000655    0.956189
  C     -0.510241    0.246493   -0.073633
  C      0.086906    0.328472   -1.445885
  C     -0.143995   -0.554788   -2.404260
  H      0.717161   -0.166893    3.060727
  H     -0.712923   -0.726688    2.451779
  H     -0.447255    0.894957    2.562751
  H      1.055987   -0.967765    0.815937
  H      1.341396    0.777008    0.939961
  H     -1.029909    1.185232    0.159880
  H     -1.250131   -0.559946   -0.040517
  H      0.738278    1.178071   -1.636547
  H     -0.800353   -1.406618   -2.255380
  H      0.306381   -0.450239   -3.383646

----------------------------
CARTESIAN COORDINATES (A.U.)
----------------------------
  NO LB      ZA    FRAG    MASS        X           Y           Z
   0 N     7.0000    0    14.007         -0.000640151189004         -0.000459518223899          4.444904850178896
   1 C     6.0000    0    12.011          1.087030036525831          0.001236922376276          1.806934851208160
   2 C     6.0000    0    12.011         -0.964215692452807          0.465803861566251         -0.139145946738511
   3 C     6.0000    0    12.011          0.164227864330711          0.620722989466785         -2.732326992793201
   4 C     6.0000    0    12.011         -0.272111455959326         -1.048396527129001         -4.543392566977160
   5 H     1.0000    0     1.008          1.355237050914882         -0.315382089671671          5.783935283022469
   6 H     1.0000    0     1.008         -1.347229899861401         -1.373240391154658          4.633190354410208
   7 H     1.0000    0     1.008         -0.845190218363411          1.691224166024806          4.842897486098719
   8 H     1.0000    0     1.008          1.995526464445864         -1.828810782651456          1.541896639140535
   9 H     1.0000    0     1.008          2.534871894703824          1.468333095211559          1.776269418769337
  10 H     1.0000    0     1.008         -1.946245256050910          2.239763116963021          0.302128956429827
  11 H     1.0000    0     1.008         -2.362405062881443         -1.058143836368187         -0.076565943599625
  12 H     1.0000    0     1.008          1.395142644004010          2.226231168291394         -3.092625263366033
  13 H     1.0000    0     1.008         -1.512448324532405         -2.658123040026132         -4.262050169255597
  14 H     1.0000    0     1.008          0.578977111674790         -0.850828465981083         -6.394165032712269

--------------------------------
INTERNAL COORDINATES (ANGSTROEM)
--------------------------------
 N      0   0   0   0.000000     0.000     0.000
 C      1   0   0   1.509956     0.000     0.000
 C      2   1   0   1.516318   110.800     0.000
 C      3   2   1   1.498793   110.211   176.540
 C      4   3   2   1.323611   123.843   113.921
 H      1   2   3   1.022091   111.928   179.865
 H      1   2   3   1.022461   110.865    59.449
 H      1   2   3   1.022484   110.886   300.368
 H      2   1   3   1.090244   106.648   238.043
 H      2   1   3   1.090870   106.373   122.159
 H      3   2   1   1.098095   109.448    55.859
 H      3   2   1   1.094932   110.108   297.700
 H      4   3   2   1.087407   116.227   293.504
 H      5   4   3   1.085627   121.990     0.529
 H      5   4   3   1.083036   121.185   179.635

---------------------------
INTERNAL COORDINATES (A.U.)
---------------------------
 N      0   0   0   0.000000     0.000     0.000
 C      1   0   0   2.853404     0.000     0.000
 C      2   1   0   2.865425   110.800     0.000
 C      3   2   1   2.832309   110.211   176.540
 C      4   3   2   2.501262   123.843   113.921
 H      1   2   3   1.931471   111.928   179.865
 H      1   2   3   1.932170   110.865    59.449
 H      1   2   3   1.932215   110.886   300.368
 H      2   1   3   2.060263   106.648   238.043
 H      2   1   3   2.061446   106.373   122.159
 H      3   2   1   2.075099   109.448    55.859
 H      3   2   1   2.069122   110.108   297.700
 H      4   3   2   2.054902   116.227   293.504
 H      5   4   3   2.051538   121.990     0.529
 H      5   4   3   2.046642   121.185   179.635



           ************************************************************
           *        Program running with 8 parallel MPI-processes     *
           *              working on a common directory               *
           ************************************************************
           ************************************************************
           *              Shut down parallel processing               *
           ************************************************************


           ************************************************************
           *        Program running with 8 parallel MPI-processes     *
           *              working on a common directory               *
           ************************************************************

Diagonalization of the overlap matrix:
Smallest eigenvalue                        ... 1.658e-04
Time for diagonalization                   ...    0.012 sec
Threshold for overlap eigenvalues          ... 1.000e-08
Number of eigenvalues below threshold      ... 0
Time for construction of square roots      ...    0.005 sec
Total time needed                          ...    0.017 sec

-------------------
DFT GRID GENERATION
-------------------

General Integration Accuracy     IntAcc      ...  4.340
Radial Grid Type                 RadialGrid  ... Gauss-Chebyshev
Angular Grid (max. acc.)         AngularGrid ... Lebedev-194
Angular grid pruning method      GridPruning ... 3 (G Style)
Weight generation scheme         WeightScheme... Becke
Basis function cutoff            BFCut       ...    1.0000e-11
Integration weight cutoff        WCut        ...    1.0000e-14
Grids for H and He will be reduced by one unit

# of grid points (after initial pruning)     ...  31730 (   0.0 sec)
# of grid points (after weights+screening)   ...  29557 (   0.0 sec)
nearest neighbour list constructed           ...    0.0 sec
Grid point re-assignment to atoms done       ...    0.0 sec
Grid point division into batches done        ...    0.0 sec
Reduced shell lists constructed in    0.1 sec

Total number of grid points                  ...    29557
Total number of batches                      ...      469
Average number of points per batch           ...       63
Average number of grid points per atom       ...     1970
Average number of shells per batch           ...    78.33 (82.46%)
Average number of basis functions per batch  ...   181.37 (84.36%)
Average number of large shells per batch     ...    66.97 (85.49%)
Average number of large basis fcns per batch ...   155.97 (86.00%)
Maximum spatial batch extension              ...   1.85,  1.90,  2.34 au
Average spatial batch extension              ...   0.14,  0.13,  0.14 au

Time for grid setup =    0.138 sec

--------------
SCF ITERATIONS
--------------
ITER       Energy         Delta-E        Max-DP      RMS-DP      [F,P]     Damp
               ***  Starting incremental Fock matrix formation  ***
                      *** Initiating the SOSCF procedure ***
                      *** Re-Reading the Fockian *** 
                      *** Removing any level shift *** 
ITER      Energy       Delta-E        Grad      Rot      Max-DP    RMS-DP
  0   -212.74531034 -212.7453103446  0.000161  0.000161  0.000167  0.000006
               *** Restarting incremental Fock matrix formation ***
  1   -212.74531200  -0.0000016600  0.000077  0.000175  0.000089  0.000003
  2   -212.74531221  -0.0000002020  0.000037  0.000126  0.000075  0.000002
  3   -212.74531219   0.0000000144  0.000060  0.000079  0.000040  0.000001
                  ***Gradient check signals convergence***
              ***Rediagonalizing the Fockian in SOSCF/NRSCF***

               *****************************************************
               *                     SUCCESS                       *
               *           SCF CONVERGED AFTER   4 CYCLES          *
               *****************************************************

Setting up the final grid:

General Integration Accuracy     IntAcc      ...  5.010
Radial Grid Type                 RadialGrid  ... Gauss-Chebyshev
Angular Grid (max. acc.)         AngularGrid ... Lebedev-434
Angular grid pruning method      GridPruning ... 3 (G Style)
Weight generation scheme         WeightScheme... Becke
Basis function cutoff            BFCut       ...    1.0000e-11
Integration weight cutoff        WCut        ...    1.0000e-14
Grids for H and He will be reduced by one unit

# of grid points (after initial pruning)     ... 120302 (   0.0 sec)
# of grid points (after weights+screening)   ... 110724 (   0.1 sec)
nearest neighbour list constructed           ...    0.0 sec
Grid point re-assignment to atoms done       ...    0.0 sec
Grid point division into batches done        ...    0.8 sec
Reduced shell lists constructed in    1.0 sec

Total number of grid points                  ...   110724
Total number of batches                      ...     1737
Average number of points per batch           ...       63
Average number of grid points per atom       ...     7382
Average number of shells per batch           ...    78.54 (82.68%)
Average number of basis functions per batch  ...   182.56 (84.91%)
Average number of large shells per batch     ...    66.30 (84.41%)
Average number of large basis fcns per batch ...   154.68 (84.73%)
Maximum spatial batch extension              ...   2.26,  1.71,  2.31 au
Average spatial batch extension              ...   0.10,  0.09,  0.10 au

Final grid set up in    1.1 sec
Final integration                            ... done (   0.5 sec)
Change in XC energy                          ...     0.000211415
Integrated number of electrons               ...    40.000027621
Previous integrated no of electrons          ...    39.999424788
Total Energy       :         -212.74510081 Eh           -5789.08850 eV
  Last Energy change         ...   -3.0965e-08  Tolerance :   1.0000e-08
  Last MAX-Density change    ...    3.8846e-06  Tolerance :   1.0000e-07
             **** THE GBW FILE WAS UPDATED (0132_+.gbw) ****
             **** DENSITY FILE WAS UPDATED (0132_+.scfp.tmp) ****
             **** ENERGY FILE WAS UPDATED (0132_+.en.tmp) ****
Total SCF time: 0 days 0 hours 0 min 12 sec 
           ************************************************************
           *              Shut down parallel processing               *
           ************************************************************

-------------------------   --------------------
FINAL SINGLE POINT ENERGY      -212.745100808603
-------------------------   --------------------



           ************************************************************
           *        Program running with 8 parallel MPI-processes     *
           *              working on a common directory               *
           ************************************************************
------------------------------------------------------------------------------
                         ORCA SCF GRADIENT CALCULATION
------------------------------------------------------------------------------

Gradient of the Kohn-Sham DFT energy:
Kohn-Sham wavefunction type      ... RKS
Hartree-Fock exchange scaling    ...    0.250
Number of operators              ...    1
Number of atoms                  ...   15
Basis set dimensions             ...  215
Integral neglect threshold       ... 2.5e-11
Integral primitive cutoff        ... 2.5e-12

Nuclear repulsion gradient       ... done
One Electron Gradient            ... done
Pre-screening matrix             ... done
Starting the two electron gradient:
Two electron gradient done
Exchange-correlation gradient    ... done

------------------
CARTESIAN GRADIENT
------------------

   1   N   :    0.000039208   -0.000008541   -0.000120262
   2   C   :    0.000015353    0.000002514    0.000104186
   3   C   :   -0.000064730   -0.000032229   -0.000078330
   4   C   :   -0.000039552   -0.000051067    0.000026976
   5   C   :    0.000054160    0.000049385    0.000046541
   6   H   :   -0.000016558    0.000007742    0.000029516
   7   H   :   -0.000009963    0.000006943    0.000024796
   8   H   :    0.000012514    0.000005221    0.000020743
   9   H   :    0.000008632    0.000012554   -0.000019067
  10   H   :   -0.000002202   -0.000001148   -0.000014083
  11   H   :    0.000023389    0.000000854    0.000026185
  12   H   :   -0.000007157    0.000021943    0.000010422
  13   H   :   -0.000017012    0.000013965   -0.000021220
  14   H   :    0.000007711   -0.000019405   -0.000030573
  15   H   :   -0.000003792   -0.000008732   -0.000005831

Norm of the cartesian gradient     ...    0.000242196
RMS gradient                       ...    0.000036104
MAX gradient                       ...    0.000120262

-------
TIMINGS
-------

Total SCF gradient time            ...       13.361 sec

One electron gradient       ....       0.063 sec  (  0.5%)
Prescreening matrices       ....       0.164 sec  (  1.2%)
Two electron gradient       ....      10.670 sec  ( 79.9%)
XC gradient                 ....       2.086 sec  ( 15.6%)
           ************************************************************
           *              Shut down parallel processing               *
           ************************************************************
------------------------------------------------------------------------------
                         ORCA GEOMETRY RELAXATION STEP
------------------------------------------------------------------------------

Reading the OPT-File                    .... done
Getting information on internals        .... done
Copying old internal coords+grads       .... done
Making the new internal coordinates     .... (new redundants).... done
Validating the new internal coordinates .... (new redundants).... done
Calculating the B-matrix                .... done
Calculating the G,G- and P matrices     .... done
Transforming gradient to internals      .... done
Projecting the internal gradient        .... done
Number of atoms                         ....  15
Number of internal coordinates          ....  66
Current Energy                          ....  -212.745100809 Eh
Current gradient norm                   ....     0.000242196 Eh/bohr
Maximum allowed component of the step   ....  0.300
Current trust radius                    ....  0.300
Updating the Hessian (BFGS)             .... done
Forming the augmented Hessian           .... done
Diagonalizing the augmented Hessian     .... done
Last element of RFO vector              ....  0.999962488
Lowest eigenvalues of augmented Hessian:
 -0.000000690  0.007467104  0.012024335  0.012412265  0.026654992
Length of the computed step             ....  0.008661901
The final length of the internal step   ....  0.008661901
Converting the step to cartesian space:
 Initial RMS(Int)=    0.0010662063
Transforming coordinates:
 Iter   0:  RMS(Cart)=    0.0023444346 RMS(Int)=    0.0010660151
 Iter   1:  RMS(Cart)=    0.0000026998 RMS(Int)=    0.0000017312
 Iter   2:  RMS(Cart)=    0.0000000063 RMS(Int)=    0.0000000027
done
Storing new coordinates                 .... done

                                .--------------------.
          ----------------------|Geometry convergence|---------------------
          Item                value                 Tolerance   Converged
          -----------------------------------------------------------------
          Energy change      -0.00000077            0.00000100      YES
          RMS gradient        0.00002358            0.00003000      YES
          MAX gradient        0.00009239            0.00010000      YES
          RMS step            0.00106621            0.00060000      NO
          MAX step            0.00341387            0.00100000      NO
          ....................................................
          Max(Bonds)      0.0002      Max(Angles)    0.03
          Max(Dihed)        0.20      Max(Improp)    0.00
          -----------------------------------------------------------------

       The energies and gradients are converged
       and the convergence on bond distances, angles, dihedrals and impropers
       is acceptable.
       Convergence will therefore be signaled now


                    ***********************HURRAY********************
                    ***        THE OPTIMIZATION HAS CONVERGED     ***
                    *************************************************


    ---------------------------------------------------------------------------
                         Redundant Internal Coordinates

                          --- Optimized Parameters ---  
                            (Angstroem and degrees)

        Definition                    OldVal   dE/dq     Step     FinalVal
    ----------------------------------------------------------------------------
     1. B(C   1,N   0)                1.5100 -0.000050  0.0002    1.5102   
     2. B(C   2,C   1)                1.5163  0.000047 -0.0001    1.5162   
     3. B(C   3,C   2)                1.4988 -0.000014  0.0000    1.4988   
     4. B(C   4,C   3)                1.3236 -0.000034  0.0001    1.3237   
     5. B(H   5,N   0)                1.0221  0.000007 -0.0000    1.0221   
     6. B(H   6,N   0)                1.0225  0.000006  0.0000    1.0225   
     7. B(H   7,N   0)                1.0225  0.000003 -0.0000    1.0225   
     8. B(H   8,C   1)                1.0902 -0.000003  0.0000    1.0903   
     9. B(H   9,C   1)                1.0909 -0.000004  0.0001    1.0909   
    10. B(H  10,C   2)                1.0981 -0.000004  0.0000    1.0981   
    11. B(H  11,C   2)                1.0949 -0.000013  0.0001    1.0950   
    12. B(H  12,C   3)                1.0874  0.000006 -0.0000    1.0874   
    13. B(H  13,C   4)                1.0856  0.000005 -0.0001    1.0856   
    14. B(H  14,C   4)                1.0830  0.000003 -0.0001    1.0829   
    15. A(H   5,N   0,H   6)          107.81 -0.000028    0.01    107.82   
    16. A(C   1,N   0,H   5)          111.93  0.000035   -0.01    111.91   
    17. A(C   1,N   0,H   7)          110.89  0.000003    0.00    110.89   
    18. A(C   1,N   0,H   6)          110.87  0.000029   -0.01    110.85   
    19. A(H   5,N   0,H   7)          107.87 -0.000029    0.02    107.88   
    20. A(H   6,N   0,H   7)          107.30 -0.000015    0.00    107.30   
    21. A(H   8,C   1,H   9)          108.70 -0.000003    0.01    108.70   
    22. A(C   2,C   1,H   9)          112.17  0.000001    0.00    112.17   
    23. A(N   0,C   1,H   9)          106.37 -0.000003    0.00    106.38   
    24. A(C   2,C   1,H   8)          111.86 -0.000017    0.01    111.87   
    25. A(N   0,C   1,H   8)          106.65  0.000022   -0.02    106.63   
    26. A(N   0,C   1,C   2)          110.80  0.000002   -0.00    110.80   
    27. A(C   1,C   2,H  10)          109.45 -0.000007    0.02    109.46   
    28. A(C   1,C   2,C   3)          110.21 -0.000053    0.02    110.23   
    29. A(C   3,C   2,H  11)          109.71  0.000035   -0.03    109.68   
    30. A(C   1,C   2,H  11)          110.11  0.000013   -0.01    110.10   
    31. A(C   3,C   2,H  10)          109.66  0.000018   -0.00    109.66   
    32. A(H  10,C   2,H  11)          107.66 -0.000006   -0.00    107.66   
    33. A(C   2,C   3,C   4)          123.84  0.000092   -0.03    123.81   
    34. A(C   4,C   3,H  12)          119.93 -0.000060    0.02    119.95   
    35. A(C   2,C   3,H  12)          116.23 -0.000033    0.01    116.24   
    36. A(H  13,C   4,H  14)          116.82 -0.000031    0.01    116.83   
    37. A(C   3,C   4,H  14)          121.19 -0.000010    0.00    121.19   
    38. A(C   3,C   4,H  13)          121.99  0.000041   -0.01    121.98   
    39. D(C   2,C   1,N   0,H   7)    -59.63 -0.000012    0.06    -59.57   
    40. D(C   2,C   1,N   0,H   6)     59.45 -0.000010    0.06     59.50   
    41. D(H   8,C   1,N   0,H   5)     57.91  0.000005    0.05     57.96   
    42. D(H   9,C   1,N   0,H   6)   -178.39 -0.000009    0.06   -178.33   
    43. D(H   9,C   1,N   0,H   5)    -57.98 -0.000000    0.05    -57.93   
    44. D(C   2,C   1,N   0,H   5)    179.87 -0.000001    0.05    179.91   
    45. D(H   8,C   1,N   0,H   6)    -62.51 -0.000004    0.06    -62.45   
    46. D(H   9,C   1,N   0,H   7)     62.53 -0.000011    0.06     62.59   
    47. D(H   8,C   1,N   0,H   7)    178.41 -0.000006    0.06    178.47   
    48. D(H  10,C   2,C   1,H   8)    174.71  0.000008    0.05    174.76   
    49. D(H  10,C   2,C   1,N   0)     55.86 -0.000009    0.06     55.92   
    50. D(C   3,C   2,C   1,H   9)     57.83 -0.000022    0.08     57.91   
    51. D(C   3,C   2,C   1,H   8)    -64.61 -0.000006    0.07    -64.54   
    52. D(H  10,C   2,C   1,H   9)    -62.85 -0.000007    0.06    -62.79   
    53. D(C   3,C   2,C   1,N   0)    176.54 -0.000024    0.09    176.63   
    54. D(H  11,C   2,C   1,H   9)    178.99 -0.000004    0.06    179.05   
    55. D(H  11,C   2,C   1,H   8)     56.55  0.000012    0.05     56.60   
    56. D(H  11,C   2,C   1,N   0)    -62.30 -0.000006    0.06    -62.24   
    57. D(H  12,C   3,C   2,H  11)    172.11 -0.000010    0.16    172.26   
    58. D(H  12,C   3,C   2,H  10)     54.06 -0.000034    0.18     54.23   
    59. D(H  12,C   3,C   2,C   1)    -66.50 -0.000004    0.14    -66.35   
    60. D(C   4,C   3,C   2,H  11)     -7.48 -0.000013    0.18     -7.30   
    61. D(C   4,C   3,C   2,H  10)   -125.53 -0.000038    0.20   -125.33   
    62. D(C   4,C   3,C   2,C   1)    113.92 -0.000008    0.16    114.08   
    63. D(H  14,C   4,C   3,H  12)      0.07 -0.000002    0.01      0.08   
    64. D(H  14,C   4,C   3,C   2)    179.64  0.000002   -0.01    179.63   
    65. D(H  13,C   4,C   3,H  12)   -179.04 -0.000004    0.03   -179.01   
    66. D(H  13,C   4,C   3,C   2)      0.53  0.000000    0.01      0.54   
    ----------------------------------------------------------------------------
                 *******************************************************
                 *** FINAL ENERGY EVALUATION AT THE STATIONARY POINT ***
                 ***               (AFTER    2 CYCLES)               ***
                 *******************************************************


           ************************************************************
           *        Program running with 8 parallel MPI-processes     *
           *              working on a common directory               *
           ************************************************************
           ************************************************************
           *              Shut down parallel processing               *
           ************************************************************


           ************************************************************
           *        Program running with 8 parallel MPI-processes     *
           *              working on a common directory               *
           ************************************************************
------------
SCF SETTINGS
------------
Hamiltonian:
 Density Functional     Method          .... DFT(GTOs)
 Exchange Functional    Exchange        .... PBE
   PBE kappa parameter  XKappa          ....  0.804000
 Correlation Functional Correlation     .... PBE
 LDA part of GGA corr.  LDAOpt          .... PW91-LDA
 Gradients option       PostSCFGGA      .... off
 Hybrid DFT is turned on
   Fraction HF Exchange ScalHFX         ....  0.250000
   Scaling of DF-GGA-X  ScalDFX         ....  0.750000
   Scaling of DF-GGA-C  ScalDFC         ....  1.000000
   Scaling of DF-LDA-C  ScalLDAC        ....  1.000000
   Perturbative correction              ....  0.000000
   NL short-range parameter             ....  6.900000


General Settings:
 Integral files         IntName         .... 0132_+
 Hartree-Fock type      HFTyp           .... RHF
 Total Charge           Charge          ....    1
 Multiplicity           Mult            ....    1
 Number of Electrons    NEL             ....   40
 Basis Dimension        Dim             ....  215
 Nuclear Repulsion      ENuc            ....    180.1350740598 Eh

Convergence Acceleration:
 DIIS                   CNVDIIS         .... on
   Start iteration      DIISMaxIt       ....    12
   Startup error        DIISStart       ....  0.200000
   # of expansion vecs  DIISMaxEq       ....     5
   Bias factor          DIISBfac        ....   1.050
   Max. coefficient     DIISMaxC        ....  10.000
 Newton-Raphson         CNVNR           .... off
 SOSCF                  CNVSOSCF        .... on
   Start iteration      SOSCFMaxIt      ....   150
   Startup grad/error   SOSCFStart      ....  0.003300
 Level Shifting         CNVShift        .... on
   Level shift para.    LevelShift      ....    0.2500
   Turn off err/grad.   ShiftErr        ....    0.0010
 Zerner damping         CNVZerner       .... off
 Static damping         CNVDamp         .... on
   Fraction old density DampFac         ....    0.7000
   Max. Damping (<1)    DampMax         ....    0.9800
   Min. Damping (>=0)   DampMin         ....    0.0000
   Turn off err/grad.   DampErr         ....    0.1000
 Fernandez-Rico         CNVRico         .... off

SCF Procedure:
 Maximum # iterations   MaxIter         ....   125
 SCF integral mode      SCFMode         .... Direct
   Integral package                     .... LIBINT
 Reset frequeny         DirectResetFreq ....    20
 Integral Threshold     Thresh          ....  2.500e-11 Eh
 Primitive CutOff       TCut            ....  2.500e-12 Eh

Convergence Tolerance:
 Convergence Check Mode ConvCheckMode   .... Total+1el-Energy
 Energy Change          TolE            ....  1.000e-08 Eh
 1-El. energy change                    ....  1.000e-05 Eh
 Orbital Gradient       TolG            ....  1.000e-05
 Orbital Rotation angle TolX            ....  1.000e-05
 DIIS Error             TolErr          ....  5.000e-07


Diagonalization of the overlap matrix:
Smallest eigenvalue                        ... 1.660e-04
Time for diagonalization                   ...    0.012 sec
Threshold for overlap eigenvalues          ... 1.000e-08
Number of eigenvalues below threshold      ... 0
Time for construction of square roots      ...    0.005 sec
Total time needed                          ...    0.017 sec

-------------------
DFT GRID GENERATION
-------------------

General Integration Accuracy     IntAcc      ...  4.340
Radial Grid Type                 RadialGrid  ... Gauss-Chebyshev
Angular Grid (max. acc.)         AngularGrid ... Lebedev-194
Angular grid pruning method      GridPruning ... 3 (G Style)
Weight generation scheme         WeightScheme... Becke
Basis function cutoff            BFCut       ...    1.0000e-11
Integration weight cutoff        WCut        ...    1.0000e-14
Grids for H and He will be reduced by one unit

# of grid points (after initial pruning)     ...  31730 (   0.0 sec)
# of grid points (after weights+screening)   ...  29557 (   0.0 sec)
nearest neighbour list constructed           ...    0.0 sec
Grid point re-assignment to atoms done       ...    0.0 sec
Grid point division into batches done        ...    0.0 sec
Reduced shell lists constructed in    0.1 sec

Total number of grid points                  ...    29557
Total number of batches                      ...      469
Average number of points per batch           ...       63
Average number of grid points per atom       ...     1970
Average number of shells per batch           ...    78.35 (82.47%)
Average number of basis functions per batch  ...   181.45 (84.40%)
Average number of large shells per batch     ...    66.95 (85.45%)
Average number of large basis fcns per batch ...   155.95 (85.95%)
Maximum spatial batch extension              ...   1.84,  2.11,  2.34 au
Average spatial batch extension              ...   0.14,  0.13,  0.15 au

Time for grid setup =    0.142 sec

--------------
SCF ITERATIONS
--------------
ITER       Energy         Delta-E        Max-DP      RMS-DP      [F,P]     Damp
               ***  Starting incremental Fock matrix formation  ***
                      *** Initiating the SOSCF procedure ***
                      *** Re-Reading the Fockian *** 
                      *** Removing any level shift *** 
ITER      Energy       Delta-E        Grad      Rot      Max-DP    RMS-DP
  0   -212.74530679 -212.7453067857  0.000271  0.000271  0.000272  0.000010
               *** Restarting incremental Fock matrix formation ***
  1   -212.74531122  -0.0000044370  0.000129  0.000292  0.000133  0.000005
  2   -212.74531179  -0.0000005679  0.000023  0.000096  0.000061  0.000002
  3   -212.74531179  -0.0000000019  0.000050  0.000071  0.000030  0.000001
  4   -212.74531181  -0.0000000178  0.000006  0.000012  0.000007  0.000000
                  ***Gradient check signals convergence***
              ***Rediagonalizing the Fockian in SOSCF/NRSCF***

               *****************************************************
               *                     SUCCESS                       *
               *           SCF CONVERGED AFTER   5 CYCLES          *
               *****************************************************

Setting up the final grid:

General Integration Accuracy     IntAcc      ...  5.010
Radial Grid Type                 RadialGrid  ... Gauss-Chebyshev
Angular Grid (max. acc.)         AngularGrid ... Lebedev-434
Angular grid pruning method      GridPruning ... 3 (G Style)
Weight generation scheme         WeightScheme... Becke
Basis function cutoff            BFCut       ...    1.0000e-11
Integration weight cutoff        WCut        ...    1.0000e-14
Grids for H and He will be reduced by one unit

# of grid points (after initial pruning)     ... 120302 (   0.0 sec)
# of grid points (after weights+screening)   ... 110719 (   0.1 sec)
nearest neighbour list constructed           ...    0.0 sec
Grid point re-assignment to atoms done       ...    0.0 sec
Grid point division into batches done        ...    0.8 sec
Reduced shell lists constructed in    1.0 sec

Total number of grid points                  ...   110719
Total number of batches                      ...     1738
Average number of points per batch           ...       63
Average number of grid points per atom       ...     7381
Average number of shells per batch           ...    78.56 (82.69%)
Average number of basis functions per batch  ...   182.53 (84.90%)
Average number of large shells per batch     ...    66.26 (84.34%)
Average number of large basis fcns per batch ...   154.64 (84.72%)
Maximum spatial batch extension              ...   1.88,  1.71,  2.31 au
Average spatial batch extension              ...   0.10,  0.09,  0.10 au

Final grid set up in    1.1 sec
Final integration                            ... done (   0.4 sec)
Change in XC energy                          ...     0.000210506
Integrated number of electrons               ...    40.000027192
Previous integrated no of electrons          ...    39.999423596
Total Energy       :         -212.74510130 Eh           -5789.08852 eV
  Last Energy change         ...   -5.9484e-10  Tolerance :   1.0000e-08
  Last MAX-Density change    ...    2.4131e-06  Tolerance :   1.0000e-07
             **** THE GBW FILE WAS UPDATED (0132_+.gbw) ****
             **** DENSITY FILE WAS UPDATED (0132_+.scfp.tmp) ****
             **** ENERGY FILE WAS UPDATED (0132_+.en.tmp) ****
Total SCF time: 0 days 0 hours 0 min 14 sec 
           ************************************************************
           *              Shut down parallel processing               *
           ************************************************************

-------------------------   --------------------
FINAL SINGLE POINT ENERGY      -212.745101304541
-------------------------   --------------------

                                *** OPTIMIZATION RUN DONE ***

                            ***************************************
                            *     ORCA property calculations      *
                            ***************************************

                                    ---------------------
                                    Active property flags
                                    ---------------------




           ************************************************************
           *        Program running with 8 parallel MPI-processes     *
           *              working on a common directory               *
           ************************************************************

-------------------------------------------------------------------------------
                               ORCA SCF HESSIAN
-------------------------------------------------------------------------------

Hessian of the Kohn-Sham DFT energy:
Kohn-Sham wavefunction type                      ... RKS
Hartree-Fock exchange scaling                    ...    0.250
Number of operators                              ...    1
Number of atoms                                  ...   15
Basis set dimensions                             ...  215
Integral neglect threshold                       ... 2.5e-11
Integral primitive cutoff                        ... 2.5e-12

Setting up DFT Hessian calculations              ... 
Electron density on the grid                     ... found on disk
Electron density on the final grid               ... found on disk
Building xc-kernel on the grid                   ... done   (      0.0 sec)
Building xc-kernel on the final grid             ... done   (      0.0 sec)
                                                     done   (      0.1 sec)

Nuclear repulsion Hessian                        ... done   (      0.0 sec)

----------------------------------------------
Forming right-hand sides of CP-SCF equations     ...
----------------------------------------------
One electron integral derivatives                ... done   (      0.2 sec)
Transforming the overlap derivative matrices     ... done   (      0.0 sec)
Making the Q(x) pseudodensities                  ... done   (      0.0 sec)
Adding the E*S(x)*S(y) terms to the Hessian      ... done   (      0.0 sec)
Calculating energy weighted overlap derivatives  ... done   (      0.0 sec)
Two electron integral derivatives                ... done   (     16.2 sec)
Exchange-correlation integral derivatives        ... done   (     26.8 sec)
tr(F(y)Q(x)) contribution to the Hessian         ... done   (      0.0 sec)
Response fock operator R(S(x))                   ... done   (     46.7 sec)
XC Response fock operator R(S(x))                ... done   (     10.1 sec)
tr(F(y)S(x)) contribution to the Hessian         ... done   (      0.0 sec)
Transforming and finalizing RHSs                 ... done   (      0.0 sec)

----------------------------------------------
Solving the CP-SCF equations                     ...
----------------------------------------------
     CP-SCF ITERATION   0: 
     CP-SCF ITERATION   1:      0.000549647
     CP-SCF ITERATION   2:      0.000087541
     CP-SCF ITERATION   3:      0.000004630
     CP-SCF ITERATION   4:      0.000000407
     CP-SCF ITERATION   5:      0.000000026
     CP-SCF ITERATION   6:      0.000000005

                                                 ... done   (    373.4 sec)
Forming perturbed density Hessian contributions  ... done   (      0.0 sec)
Making the perturbed densities                   ... done   (      0.0 sec)
2nd integral derivative contribs                 ... done   (     90.2 sec)
Exchange-correlation Hessian                     ... done   (     15.3 sec)
Dipol derivatives                                ... done   (      2.1 sec)

Total SCF Hessian time: 0 days 0 hours 9 min 42 sec 

Writing the Hessian file to the disk             ... done

           ************************************************************
           *              Shut down parallel processing               *
           ************************************************************

-----------------------
VIBRATIONAL FREQUENCIES
-----------------------

   0:         0.00 cm**-1
   1:         0.00 cm**-1
   2:         0.00 cm**-1
   3:         0.00 cm**-1
   4:         0.00 cm**-1
   5:         0.00 cm**-1
   6:        93.00 cm**-1
   7:       104.80 cm**-1
   8:       218.61 cm**-1
   9:       239.34 cm**-1
  10:       382.54 cm**-1
  11:       441.76 cm**-1
  12:       648.23 cm**-1
  13:       778.91 cm**-1
  14:       892.78 cm**-1
  15:       909.36 cm**-1
  16:       936.94 cm**-1
  17:       995.54 cm**-1
  18:      1001.77 cm**-1
  19:      1025.40 cm**-1
  20:      1043.77 cm**-1
  21:      1139.58 cm**-1
  22:      1197.46 cm**-1
  23:      1297.80 cm**-1
  24:      1317.96 cm**-1
  25:      1335.17 cm**-1
  26:      1351.34 cm**-1
  27:      1408.57 cm**-1
  28:      1454.37 cm**-1
  29:      1474.98 cm**-1
  30:      1498.44 cm**-1
  31:      1507.03 cm**-1
  32:      1657.79 cm**-1
  33:      1663.80 cm**-1
  34:      1728.24 cm**-1
  35:      3023.69 cm**-1
  36:      3082.62 cm**-1
  37:      3102.20 cm**-1
  38:      3159.50 cm**-1
  39:      3163.36 cm**-1
  40:      3167.84 cm**-1
  41:      3255.65 cm**-1
  42:      3421.33 cm**-1
  43:      3502.41 cm**-1
  44:      3508.24 cm**-1


------------
NORMAL MODES
------------

These modes are the cartesian displacements weighted by the diagonal matrix
M(i,i)=1/sqrt(m[i]) where m[i] is the mass of the displaced atom
Thus, these vectors are normalized but *not* orthogonal

                  0          1          2          3          4          5    
      0       0.000000   0.000000   0.000000   0.000000   0.000000   0.000000
      1       0.000000   0.000000   0.000000   0.000000   0.000000   0.000000
      2       0.000000   0.000000   0.000000   0.000000   0.000000   0.000000
      3       0.000000   0.000000   0.000000   0.000000   0.000000   0.000000
      4       0.000000   0.000000   0.000000   0.000000   0.000000   0.000000
      5       0.000000   0.000000   0.000000   0.000000   0.000000   0.000000
      6       0.000000   0.000000   0.000000   0.000000   0.000000   0.000000
      7       0.000000   0.000000   0.000000   0.000000   0.000000   0.000000
      8       0.000000   0.000000   0.000000   0.000000   0.000000   0.000000
      9       0.000000   0.000000   0.000000   0.000000   0.000000   0.000000
     10       0.000000   0.000000   0.000000   0.000000   0.000000   0.000000
     11       0.000000   0.000000   0.000000   0.000000   0.000000   0.000000
     12       0.000000   0.000000   0.000000   0.000000   0.000000   0.000000
     13       0.000000   0.000000   0.000000   0.000000   0.000000   0.000000
     14       0.000000   0.000000   0.000000   0.000000   0.000000   0.000000
     15       0.000000   0.000000   0.000000   0.000000   0.000000   0.000000
     16       0.000000   0.000000   0.000000   0.000000   0.000000   0.000000
     17       0.000000   0.000000   0.000000   0.000000   0.000000   0.000000
     18       0.000000   0.000000   0.000000   0.000000   0.000000   0.000000
     19       0.000000   0.000000   0.000000   0.000000   0.000000   0.000000
     20       0.000000   0.000000   0.000000   0.000000   0.000000   0.000000
     21       0.000000   0.000000   0.000000   0.000000   0.000000   0.000000
     22       0.000000   0.000000   0.000000   0.000000   0.000000   0.000000
     23       0.000000   0.000000   0.000000   0.000000   0.000000   0.000000
     24       0.000000   0.000000   0.000000   0.000000   0.000000   0.000000
     25       0.000000   0.000000   0.000000   0.000000   0.000000   0.000000
     26       0.000000   0.000000   0.000000   0.000000   0.000000   0.000000
     27       0.000000   0.000000   0.000000   0.000000   0.000000   0.000000
     28       0.000000   0.000000   0.000000   0.000000   0.000000   0.000000
     29       0.000000   0.000000   0.000000   0.000000   0.000000   0.000000
     30       0.000000   0.000000   0.000000   0.000000   0.000000   0.000000
     31       0.000000   0.000000   0.000000   0.000000   0.000000   0.000000
     32       0.000000   0.000000   0.000000   0.000000   0.000000   0.000000
     33       0.000000   0.000000   0.000000   0.000000   0.000000   0.000000
     34       0.000000   0.000000   0.000000   0.000000   0.000000   0.000000
     35       0.000000   0.000000   0.000000   0.000000   0.000000   0.000000
     36       0.000000   0.000000   0.000000   0.000000   0.000000   0.000000
     37       0.000000   0.000000   0.000000   0.000000   0.000000   0.000000
     38       0.000000   0.000000   0.000000   0.000000   0.000000   0.000000
     39       0.000000   0.000000   0.000000   0.000000   0.000000   0.000000
     40       0.000000   0.000000   0.000000   0.000000   0.000000   0.000000
     41       0.000000   0.000000   0.000000   0.000000   0.000000   0.000000
     42       0.000000   0.000000   0.000000   0.000000   0.000000   0.000000
     43       0.000000   0.000000   0.000000   0.000000   0.000000   0.000000
     44       0.000000   0.000000   0.000000   0.000000   0.000000   0.000000
                  6          7          8          9         10         11    
      0      -0.037650   0.066664   0.043641   0.093197  -0.024285  -0.020881
      1       0.103288   0.134582   0.000963  -0.029408   0.025669   0.004404
      2       0.042139   0.020460   0.011347   0.045634  -0.220511  -0.068907
      3       0.035769  -0.055481  -0.057190  -0.103774   0.058982   0.096032
      4       0.006176  -0.175218  -0.045715   0.098169  -0.012289   0.017713
      5       0.073337  -0.032006  -0.030048  -0.036184  -0.123065   0.004577
      6       0.059032  -0.080111  -0.057310  -0.134487  -0.049783  -0.010396
      7      -0.191483  -0.097816   0.042652   0.013442  -0.072150   0.063743
      8       0.002652   0.011138  -0.008016  -0.022540   0.049100   0.124049
      9       0.085820  -0.069790   0.023846   0.060796   0.041779  -0.136530
     10      -0.098430   0.050987  -0.011113  -0.089526   0.032635  -0.130748
     11       0.022048   0.023450   0.022201   0.049957   0.159899   0.068626
     12      -0.123260   0.113238   0.025241   0.037617  -0.013949   0.053795
     13       0.141762   0.057177   0.007942   0.011366   0.040003   0.000217
     14      -0.147677  -0.026047   0.005326  -0.036421   0.187357  -0.103881
     15      -0.055360   0.087362   0.184800   0.180339  -0.152362  -0.143095
     16       0.284421   0.022093   0.528007  -0.348162   0.024639   0.000401
     17       0.102313  -0.026709  -0.008380  -0.116428  -0.092207   0.053366
     18       0.049195  -0.122191   0.408483  -0.056573  -0.074675  -0.041721
     19       0.025844   0.339333  -0.320051   0.112801   0.061055   0.006711
     20       0.096599   0.171371   0.259088   0.017956  -0.319769  -0.200436
     21      -0.163148   0.329835  -0.372429   0.344246  -0.035751  -0.066776
     22       0.073254   0.281041  -0.162602   0.031015   0.046560  -0.000615
     23      -0.097076  -0.041970  -0.176842   0.320332  -0.334100  -0.143374
     24       0.141566  -0.248764  -0.115051  -0.021206   0.095761   0.064581
     25       0.040009  -0.284219  -0.071567   0.151493   0.009504   0.006855
     26       0.202137   0.058526  -0.050401  -0.122321  -0.143443  -0.024164
     27      -0.042617   0.092328  -0.013660  -0.171151   0.005118   0.101784
     28       0.082669  -0.323862  -0.089342   0.164075   0.039190   0.011575
     29       0.032001  -0.199322  -0.079324  -0.080268  -0.182948   0.013923
     30      -0.089135  -0.081867   0.040562  -0.159776  -0.164327   0.246270
     31      -0.260616  -0.118977   0.098883   0.022179  -0.160740   0.217111
     32      -0.035010   0.094004  -0.016200  -0.126809   0.161486   0.085183
     33       0.169553  -0.074562  -0.137943  -0.110852   0.074535  -0.183565
     34      -0.292859  -0.103232   0.118384  -0.006553  -0.188150   0.228492
     35      -0.019078  -0.050807  -0.026860  -0.024491  -0.004871   0.381383
     36       0.246483  -0.194730   0.125460   0.303269   0.263419  -0.089942
     37      -0.189287   0.161674  -0.077101  -0.241580  -0.107830  -0.148368
     38       0.161658   0.086499   0.073734   0.194698   0.298351   0.128509
     39      -0.287723   0.247403  -0.069408  -0.193722  -0.245102   0.073319
     40       0.243409  -0.058567   0.071365   0.159468   0.219828  -0.079892
     41      -0.298689  -0.093839  -0.052199  -0.217492   0.190531  -0.483553
     42      -0.129133   0.136775   0.122185   0.256760   0.129616   0.294734
     43       0.249614   0.179125  -0.035066  -0.034675  -0.160125   0.281300
[...]
     23      -0.064055   0.106677   0.154576  -0.097129  -0.026122  -0.059366
     24      -0.011056   0.008659  -0.024477   0.156310   0.046712   0.226156
     25       0.022797   0.013140   0.051158   0.025587   0.026435   0.120298
     26       0.104942  -0.333708  -0.619786   0.566784   0.010936  -0.005690
     27       0.012401   0.008000  -0.001756   0.135425   0.055425   0.167717
     28      -0.044143   0.014676  -0.028179  -0.158037  -0.045140  -0.179777
     29       0.226095   0.084626   0.587320   0.642219   0.022758  -0.019921
     30       0.099570  -0.018591   0.123798   0.063748  -0.176213  -0.528619
     31      -0.088451   0.070403  -0.034968   0.091240  -0.094042  -0.331126
     32       0.577941  -0.321975   0.223406  -0.205664   0.013466  -0.002479
     33       0.072830  -0.077124  -0.109009   0.023948  -0.146600  -0.427751
     34      -0.020468   0.047082   0.038445  -0.048909   0.141013   0.441265
     35       0.271266  -0.450488  -0.053286  -0.227127  -0.153029   0.137987
     36      -0.083871  -0.032695   0.011276   0.008885  -0.053819  -0.005642
     37       0.240966   0.246125  -0.100877  -0.026068   0.074176  -0.008448
     38       0.577798   0.528631  -0.237558  -0.079780   0.242580  -0.059616
     39       0.009965  -0.007210   0.002430  -0.001598  -0.112304   0.017897
     40      -0.122133  -0.167064   0.056620   0.001455   0.163150  -0.032238
     41      -0.173603  -0.345640   0.109397  -0.040405   0.561016  -0.160816
     42      -0.017454  -0.034085   0.006226  -0.021104   0.313426  -0.077273
     43       0.048810  -0.112171   0.017708  -0.069731   0.553226  -0.164374
     44       0.012856  -0.030560   0.002287  -0.024445   0.206266  -0.054387
                 30         31         32         33         34         35    
      0      -0.008946  -0.041145  -0.012590  -0.044379  -0.002234   0.000263
      1       0.001776  -0.000239  -0.046372   0.013640   0.002827  -0.000252
      2      -0.007577   0.103481  -0.004928  -0.018140  -0.001676   0.000181
      3      -0.066825  -0.006029  -0.003978  -0.014150   0.001613  -0.004006
      4       0.008650   0.000484  -0.014416   0.004535   0.002603   0.002715
      5       0.029096   0.007093  -0.001898  -0.008435   0.009579  -0.000707
      6      -0.027607  -0.017118   0.000516   0.002388  -0.004888   0.059026
      7       0.003060   0.002552   0.000406  -0.000745   0.024736  -0.034867
      8       0.002301  -0.008310   0.001036   0.001831   0.058230  -0.015570
      9      -0.000441   0.000471  -0.000363  -0.000989  -0.034594   0.000284
     10      -0.000026  -0.001203  -0.002054   0.001416  -0.253963  -0.000311
     11      -0.004076   0.000389  -0.005017   0.001601  -0.355601  -0.000244
     12      -0.000407   0.000783   0.000826  -0.000368   0.063360   0.000025
     13      -0.001126   0.002498   0.003884  -0.001533   0.252614  -0.000102
     14      -0.001230   0.001857   0.004726  -0.001922   0.288212   0.000222
     15      -0.047107   0.410773   0.088020  -0.276971  -0.012291  -0.002178
     16       0.007348  -0.042093   0.711368  -0.048853  -0.040950   0.001122
     17       0.036830  -0.395497   0.072534   0.228773   0.000326   0.002227
     18      -0.011532   0.056876  -0.168416   0.483232   0.019837  -0.000227
     19       0.008740  -0.154095   0.073071  -0.478724  -0.015314  -0.002884
     20       0.080112  -0.533925  -0.414588   0.038049   0.040187   0.002616
     21      -0.013859   0.111902   0.299061   0.557867  -0.002588  -0.000511
     22      -0.015327   0.198349   0.024656   0.295133   0.005696   0.005312
     23       0.080104  -0.512172   0.422074   0.001856  -0.016646   0.006792
     24       0.544994   0.039730   0.016377  -0.016681  -0.010746   0.025915
     25       0.327635   0.023858  -0.002919   0.000806   0.002623  -0.056309
     26      -0.180713  -0.011953  -0.037135   0.035599  -0.023560  -0.009602
     27       0.415599   0.030458  -0.020286  -0.012270   0.000285   0.017543
     28      -0.452165  -0.033279  -0.002629  -0.000089   0.008830   0.020535
     29      -0.236416  -0.017398   0.044637   0.028143  -0.027288   0.000676
     30       0.196932   0.100562  -0.001597   0.019667  -0.036031  -0.409535
     31       0.118626   0.060847  -0.003724   0.005836  -0.023005   0.765121
     32       0.015152   0.027402  -0.011722   0.001133   0.138004   0.181225
     33       0.158782   0.081070  -0.001089   0.016271   0.013989  -0.293746
     34      -0.162636  -0.087912  -0.003082  -0.009420  -0.004965  -0.343365
     35      -0.024302   0.010576   0.012531  -0.003173  -0.166325   0.006887
     36       0.008378   0.004052  -0.000409   0.000082  -0.179373  -0.002045
     37      -0.006510  -0.007356  -0.001533   0.000734  -0.045665  -0.001021
     38      -0.003381  -0.010851   0.000461   0.001044   0.368482  -0.000743
     39       0.000947   0.006435   0.002937  -0.001918   0.213807   0.004217
     40       0.002297  -0.002829   0.000810   0.000169   0.080664   0.004123
     41       0.022171  -0.003318  -0.008748   0.003199  -0.424796  -0.001919
     42       0.006496  -0.009243  -0.003894   0.003740  -0.279577  -0.002363
     43       0.021503  -0.003772  -0.006514   0.001096  -0.316896  -0.001092
     44       0.004840  -0.003071   0.002180  -0.000048   0.129906   0.003529
                 36         37         38         39         40         41    
      0      -0.000480   0.002094   0.000020  -0.000242   0.000265   0.000047
      1      -0.000806  -0.000295  -0.000300  -0.003064   0.000819   0.000023
      2      -0.000177  -0.000200   0.000005  -0.000168   0.000226   0.000037
      3       0.008412  -0.067425   0.000401   0.010285  -0.004384  -0.000033
      4       0.012314   0.005887   0.008045   0.090620  -0.026940  -0.000014
      5       0.000670   0.008109   0.000575   0.006787  -0.001978  -0.000016
      6      -0.032242  -0.006035  -0.001293   0.002245  -0.003170   0.000071
      7      -0.083946  -0.005718  -0.001930   0.010713  -0.011009   0.000666
      8      -0.005129   0.000648  -0.000168   0.000822  -0.001785   0.000648
      9       0.004582   0.001185  -0.016478  -0.013157  -0.046020   0.006439
     10       0.005159   0.001720  -0.018218  -0.018578  -0.063106   0.008921
     11      -0.001910  -0.000208   0.010569   0.001615   0.007860  -0.000859
     12       0.000401   0.000070  -0.018790   0.005747   0.013407   0.056002
     13       0.000469   0.000003  -0.047634   0.011613   0.024105   0.041318
     14       0.000105  -0.000073  -0.038177   0.006262   0.009237  -0.069547
     15       0.001336  -0.006158  -0.000329  -0.000618  -0.000119  -0.000325
     16       0.001781   0.000853  -0.000031  -0.000818   0.000240   0.000098
     17      -0.000927   0.004096  -0.000029   0.000608   0.000576  -0.000238
     18       0.005594  -0.008646   0.001267   0.010149  -0.002816  -0.000392
     19       0.007572  -0.010928   0.001588   0.013486  -0.003704  -0.000394
     20      -0.004597  -0.002512   0.000034   0.005995  -0.002964   0.000210
     21      -0.001616  -0.004445  -0.000726  -0.006127   0.001049   0.000070
     22       0.003525   0.012387   0.001840   0.019023  -0.004478  -0.000059
     23       0.003437   0.000001  -0.000319  -0.004246   0.001380  -0.000023
     24       0.018718   0.279762   0.029415   0.311332  -0.088756   0.000212
     25      -0.034527  -0.599304  -0.059815  -0.626834   0.178057   0.000019
     26      -0.008847  -0.086937  -0.008587  -0.087648   0.024556   0.000156
     27      -0.112761   0.502959  -0.034362  -0.435504   0.138773  -0.000385
     28      -0.118535   0.532924  -0.035183  -0.439958   0.139279  -0.000112
     29       0.006447  -0.010402   0.001888   0.006960   0.000682  -0.000578
     30      -0.212961   0.008050  -0.001883   0.036058  -0.031461   0.001193
     31       0.366370  -0.013472   0.003668  -0.062824   0.053624  -0.003383
     32       0.090859  -0.001493   0.001588  -0.010518   0.016071  -0.001257
     33       0.590475   0.074463   0.019870  -0.060043   0.071343  -0.005965
     34       0.645888   0.079608   0.021180  -0.063895   0.077687  -0.005189
     35      -0.021749  -0.001019  -0.004295  -0.001618  -0.003539   0.003158
     36      -0.057154  -0.015026   0.204633   0.151019   0.533784  -0.064294
     37      -0.073224  -0.019792   0.266210   0.197235   0.694921  -0.084679
     38       0.014240   0.002514  -0.062035  -0.042531  -0.157560   0.017946
     39      -0.003596  -0.001281   0.452645  -0.097912  -0.188038  -0.337591
     40      -0.002905  -0.000989   0.580294  -0.126741  -0.242229  -0.438407
     41       0.003278   0.000768  -0.109606   0.023166   0.044807   0.071507
     42       0.003208   0.001605  -0.239937   0.033994   0.041168  -0.337659
     43       0.001749   0.000270  -0.063757   0.009442   0.012130  -0.074606
     44      -0.005039  -0.003245   0.505410  -0.072361  -0.086035   0.740014
                  42         43         44    
      0       0.017896   0.014107  -0.072599
      1      -0.000435   0.079228   0.015360
      2      -0.036915   0.005970  -0.032332
      3       0.001586   0.000374  -0.001002
      4      -0.000203   0.002479   0.000209
      5      -0.001584   0.000179   0.000337
      6      -0.000687  -0.000115   0.000564
      7       0.000027  -0.000849  -0.000090
      8       0.000327  -0.000105   0.000167
      9       0.000233  -0.000042  -0.000086
     10       0.000052  -0.000042  -0.000010
     11       0.000138  -0.000001   0.000084
     12      -0.000050  -0.000025   0.000037
     13      -0.000094  -0.000011   0.000037
     14      -0.000003   0.000017  -0.000066
     15       0.402813  -0.006822   0.588770
     16      -0.090985   0.017238  -0.134443
     17       0.372940  -0.007956   0.567127
     18      -0.402764  -0.498220   0.252691
     19      -0.423387  -0.504640   0.280977
     20       0.040144   0.060556  -0.037587
     21      -0.251285   0.310019   0.163134
     22       0.520632  -0.609365  -0.358979
     23       0.105583  -0.135181  -0.084854
     24      -0.005031   0.007844   0.005187
     25       0.008313  -0.017334  -0.008245
     26       0.005305  -0.005002  -0.002404
     27      -0.007338  -0.013026   0.007104
     28      -0.006640  -0.014321   0.005815
     29       0.004236   0.002843  -0.001226
     30       0.000635  -0.001257  -0.000706
     31      -0.002023   0.003847   0.001698
     32      -0.001355   0.001716   0.001268
     33       0.001616   0.002237  -0.001303
     34       0.002300   0.004030  -0.001685
     35      -0.000658  -0.000760   0.000610
     36      -0.000277   0.000604   0.000073
     37      -0.000070   0.000569   0.000099
     38       0.000019  -0.000119  -0.000260
     39       0.000268   0.000166  -0.000210
     40       0.000237   0.000214  -0.000205
     41      -0.000077   0.000048   0.000019
     42      -0.000208   0.000150  -0.000127
     43       0.000257   0.000037  -0.000218
     44       0.000195  -0.000165   0.000379


-----------
IR SPECTRUM
-----------

 Mode    freq (cm**-1)   T**2         TX         TY         TZ
-------------------------------------------------------------------
   6:        93.00    3.615163  ( -0.823227   1.567427   0.693276)
   7:       104.80    3.921738  (  1.038445   1.679322   0.152475)
   8:       218.61    0.959441  (  0.924913  -0.260627   0.189870)
   9:       239.34    3.500856  (  1.500437  -0.405311   1.041762)
  10:       382.54    8.674557  ( -0.192343   0.070859  -2.938118)
  11:       441.76    0.301876  ( -0.241896   0.099915  -0.483094)
  12:       648.23   15.458682  (  2.757591  -2.393948   1.457185)
  13:       778.91    6.444642  (  0.899453   2.305258   0.566932)
  14:       892.78   25.081881  (  2.592520  -0.098413   4.283811)
  15:       909.36   15.337717  ( -1.352388   2.588604  -2.609194)
  16:       936.94    2.286727  ( -1.192177   0.353575   0.860479)
  17:       995.54    3.306484  ( -0.459438  -1.347185   1.131589)
  18:      1001.77   49.394110  ( -5.731744   3.714141  -1.657219)
  19:      1025.40    9.718353  (  1.907386  -2.366841   0.691589)
  20:      1043.77   16.527960  ( -1.409630  -1.263747  -3.597756)
  21:      1139.58    9.546453  ( -2.064308   0.516740  -2.240104)
  22:      1197.46    1.954021  ( -1.015118  -0.951313   0.136234)
  23:      1297.80    0.481595  ( -0.233536  -0.639178   0.136043)
  24:      1317.96    5.976584  ( -1.557335  -1.087780  -1.538839)
  25:      1335.17    2.403684  (  0.328923  -1.248449  -0.858410)
  26:      1351.34    3.087111  ( -0.213763  -1.712391   0.330356)
  27:      1408.57    9.223236  (  0.264126   0.202039  -3.018717)
  28:      1454.37    5.964967  (  0.953339   2.089213   0.831446)
  29:      1474.98    2.880458  ( -1.014175  -1.270068  -0.488707)
  30:      1498.44   17.245822  (  3.095944  -0.387049   2.740647)
  31:      1507.03  151.701355  (  4.864717  -0.124624 -11.314608)
  32:      1657.79   52.259384  (  1.724197   6.979758   0.754655)
  33:      1663.80   38.718341  (  5.332137  -1.755215   2.684376)
  34:      1728.24    2.501598  (  0.095719  -1.168833  -1.061256)
  35:      3023.69   16.081164  (  2.242224  -1.229727  -3.088910)
  36:      3082.62    5.008391  ( -0.884431  -2.046310   0.196946)
  37:      3102.20    1.477278  ( -1.152842  -0.081323  -0.376325)
  38:      3159.50    3.350834  ( -1.156208  -1.263167   0.646860)
  39:      3163.36    0.118897  (  0.104064   0.324879   0.050216)
  40:      3167.84    1.509937  ( -0.676671  -0.962995   0.353120)
  41:      3255.65    0.782746  (  0.538574   0.685417  -0.151289)
  42:      3421.33   50.289240  ( -1.798298   0.116878   6.858696)
  43:      3502.41   92.322479  ( -1.682330  -9.440667  -0.605025)
  44:      3508.24  102.982846  (  9.009700  -1.899642   4.266089)

The first frequency considered to be a vibration is 6
The total number of vibrations considered is 39


--------------------------
THERMOCHEMISTRY AT 298.15K
--------------------------

Temperature         ... 298.15 K
Pressure            ... 1.00 atm
Total Mass          ... 72.13 AMU

Throughout the following assumptions are being made:
  (1) The electronic state is orbitally nondegenerate
  (2) There are no thermally accessible electronically excited states
  (3) Hindered rotations indicated by low frequency modes) are not
      treated as such but are treated as vibrations and this may
      case some error
  (4) All equations used are the standard statistical mechanics
      equations for an ideal gas
  (5) All vibrations are strinctly harmonic


------------
INNER ENERGY
------------

The inner energy is: U= E(el) + E(ZPE) + E(vib) + E(rot) + E(trans)
    E(el)   - is the total energy from the electronic structure calculation
              = E(kin-el) + E(nuc-el) + E(el-el) + E(nuc-nuc)
    E(ZPE)  - the the zero temperature vibrational energy from the frequency calculation
    E(vib)  - the the finite temperature correction to E(ZPE) due to population
              of excietd vibrational states
    E(rot)  - is the rotational thermal energy
    E(trans)- is the translational thermal energy

Summary of contributions to the inner energy U:
Electronic energy                ...   -212.74510130 Eh
Zero point energy                ...      0.14154740 Eh      88.82 kcal/mol
Thermal vibrational correction   ...      0.00373219 Eh       2.34 kcal/mol
Thermal rotational correction    ...      0.00141627 Eh       0.89 kcal/mol
Thermal translational correction ...      0.00141627 Eh       0.89 kcal/mol
-----------------------------------------------------------------------
Total thermal energy                   -212.59698917 Eh


Summary of corrections to the electronic energy:
(perhaps to be used in another calculation)
Total thermal correction                  0.00656473 Eh       4.12 kcal/mol
Non-thermal (ZPE) correction              0.14154740 Eh      88.82 kcal/mol
-----------------------------------------------------------------------
Total correction                          0.14811213 Eh      92.94 kcal/mol


--------
ENTHALPY
--------

The enthalpy is H = U + kB*T
                kB is Boltzmann's constant
Total free energy                 ...   -212.59698917 Eh 
Thermal Enthalpy correction       ...      0.00094421 Eh       0.59 kcal/mol
-----------------------------------------------------------------------
Total Enthalpy                    ...   -212.59604496 Eh


-------
ENTROPY
-------

The entropy contributions are T*S = T*(S(el)+S(vib)+S(rot)+S(trans)
     S(el)   - electronic entropy
     S(vib)  - vibrational entropy
     S(rot)  - rotational entropy
     S(trans)- translational entropy
The entropies will be listed as mutliplied by the temperature to get
units of energy

Electronic entropy                ...      0.00000000 Eh      0.00 kcal/mol
Vibrational entropy               ...      0.00675357 Eh      4.24 kcal/mol
Rotational entropy                ...      0.01123007 Eh      7.05 kcal/mol
Translational entropy             ...      0.01840857 Eh     11.55 kcal/mol
-----------------------------------------------------------------------
Final entropy term                ...      0.03639221 Eh     22.84 kcal/mol


CAUTION: The rotational entropy is not quite correctly treated here
         because it includes a symmetry number that is not yet correctly
         implemented in ORCA!
For a nonlinear molecule the correct rotational entropy is:
    S(rot) = R*(ln(qrot/sn)+1.5)
    R    = 8.31441 J/mol/K = 1.987191683e-3 kcal/mol/K
    qrot = 97987.0609083
    sn is the rotational symmetry number. We have assumed 3 here
       if it is different for your molecule then you should correct
       the printed rotational entropy by manually evaluating the equation
       as given above

For convenience we print out the resulting values for sn=1 - 12:
 sn= 1  qrot/sn=   97987.0609 T*S(rot)=     7.70 kcal/mol T*S(tot)=    23.49 kcal/mol
 sn= 2  qrot/sn=   48993.5305 T*S(rot)=     7.29 kcal/mol T*S(tot)=    23.08 kcal/mol
 sn= 3  qrot/sn=   32662.3536 T*S(rot)=     7.05 kcal/mol T*S(tot)=    22.84 kcal/mol
 sn= 4  qrot/sn=   24496.7652 T*S(rot)=     6.88 kcal/mol T*S(tot)=    22.67 kcal/mol
 sn= 5  qrot/sn=   19597.4122 T*S(rot)=     6.74 kcal/mol T*S(tot)=    22.53 kcal/mol
 sn= 6  qrot/sn=   16331.1768 T*S(rot)=     6.64 kcal/mol T*S(tot)=    22.43 kcal/mol
 sn= 7  qrot/sn=   13998.1516 T*S(rot)=     6.54 kcal/mol T*S(tot)=    22.33 kcal/mol
 sn= 8  qrot/sn=   12248.3826 T*S(rot)=     6.47 kcal/mol T*S(tot)=    22.26 kcal/mol
 sn= 9  qrot/sn=   10887.4512 T*S(rot)=     6.40 kcal/mol T*S(tot)=    22.19 kcal/mol
 sn=10  qrot/sn=    9798.7061 T*S(rot)=     6.33 kcal/mol T*S(tot)=    22.12 kcal/mol
 sn=11  qrot/sn=    8907.9146 T*S(rot)=     6.28 kcal/mol T*S(tot)=    22.07 kcal/mol
 sn=12  qrot/sn=    8165.5884 T*S(rot)=     6.23 kcal/mol T*S(tot)=    22.02 kcal/mol


-------------------
GIBBS FREE ENTHALPY
-------------------

The Gibbs free enthalpy is G = H - T*S

Total enthalpy                    ...   -212.59604496 Eh 
Total entropy correction          ...     -0.03639221 Eh    -22.84 kcal/mol
-----------------------------------------------------------------------
Final Gibbs free enthalpy         ...   -212.63243717 Eh

For completeness - the Gibbs free enthalpy minus the electronic energy
G-E(el)                           ...      0.11266413 Eh     70.70 kcal/mol


Timings for individual modules:

Sum of individual times         ...      678.602 sec (=  11.310 min)
GTO integral calculation        ...        5.009 sec (=   0.083 min)   0.7 %
SCF iterations                  ...       60.929 sec (=   1.015 min)   9.0 %
SCF Gradient evaluation         ...       29.195 sec (=   0.487 min)   4.3 %
Geometry relaxation             ...        0.129 sec (=   0.002 min)   0.0 %
Analytical frequency calculation...      583.340 sec (=   9.722 min)  86.0 %
                             ****ORCA TERMINATED NORMALLY****
TOTAL RUN TIME: 0 days 0 hours 11 minutes 20 seconds 66 msec
