
                                 *****************
                                 * O   R   C   A *
                                 *****************

           --- An Ab Initio, DFT and Semiempirical electronic structure package ---

                  #######################################################
                  #                        -***-                        #
                  #  Department of molecular theory and spectroscopy    #
                  #              Directorship: Frank Neese              #
                  # Max Planck Institute for Chemical Energy Conversion #
                  #                  D-45470 Muelheim/Ruhr              #
                  #                       Germany                       #
                  #                                                     #
                  #                  All rights reserved                #
                  #                        -***-                        #
                  #######################################################


                         Program Version 3.0.3 - RELEASE   -


 With contributions from (in alphabetic order):
   Ute Becker             : Parallelization
   Dmytro Bykov           : SCF Hessian
   Dmitry Ganyushin       : Spin-Orbit,Spin-Spin,Magnetic field MRCI
   Andreas Hansen         : Spin unrestricted coupled pair/coupled cluster methods
   Dimitrios Liakos       : Extrapolation schemes; parallel MDCI
   Robert Izsak           : Overlap fitted RIJCOSX, COSX-SCS-MP3
   Christian Kollmar      : KDIIS, OOCD, Brueckner-CCSD(T), CCSD density
   Simone Kossmann        : Meta GGA functionals, TD-DFT gradient, OOMP2, MP2 Hessian
   Taras Petrenko         : DFT Hessian,TD-DFT gradient, ASA and ECA modules, normal mode analysis, Resonance Raman, ABS, FL, XAS/XES, NRVS
   Christoph Reimann      : Effective Core Potentials
   Michael Roemelt        : Restricted open shell CIS
   Christoph Riplinger    : Improved optimizer, TS searches, QM/MM, DLPNO-CCSD
   Barbara Sandhoefer     : DKH picture change effects
   Igor Schapiro          : Molecular dynamics
   Kantharuban Sivalingam : CASSCF convergence, NEVPT2
   Boris Wezisla          : Elementary symmetry handling
   Frank Wennmohs         : Technical directorship


 We gratefully acknowledge several colleagues who have allowed us to
 interface, adapt or use parts of their codes:
   Stefan Grimme, W. Hujo, H. Kruse, T. Risthaus : VdW corrections, initial TS optimization,
                                                   DFT functionals, gCP
   Ed Valeev                                     : LibInt (2-el integral package), F12 methods
   Garnet Chan, S. Sharma, R. Olivares           : DMRG
   Ulf Ekstrom                                   : XCFun DFT Library
   Mihaly Kallay                                 : mrcc  (arbitrary order and MRCC methods)
   Andreas Klamt, Michael Diedenhofen            : otool_cosmo (COSMO solvation model)
   Frank Weinhold                                : gennbo (NPA and NBO analysis)
   Christopher J. Cramer and Donald G. Truhlar   : smd solvation model


 Your calculation uses the libint2 library for the computation of 2-el integrals
 For citations please refer to: http://libint.valeyev.net

 This ORCA versions uses:
   CBLAS   interface :  Fast vector & matrix operations
   LAPACKE interface :  Fast linear algebra routines
   SCALAPACK package :  Parallel linear algebra routines


Your calculation utilizes the basis: Ahlrichs-TZV
Cite in your paper:
H - Kr: A. Schaefer, H. Horn and R. Ahlrichs, J. Chem. Phys. 97, 2571 (1992).

The def2-TZV basis will be loaded
Cite in your paper:
 	F. Weigend, R. Ahlrichs, Phys. Chem. Chem. Phys. 2005, 7, 3297.

================================================================================
                                        WARNINGS
                       Please study these warnings very carefully!
================================================================================
Now building the actual basis set
WARNING: Geometry optimizations can change the point-group symmetry!

WARNING: Geometry Optimization
  ===> : Switching off AutoStart
         For restart on a previous wavefunction, please use MOREAD


INFO   : the flag for use of LIBINT has been found!

================================================================================
                                       INPUT FILE
================================================================================
NAME = 0192_+.inp
|  1> ! NORI PBE0 def2-TZVP UseSym TightOPT Freq TightSCF Grid3 FinalGrid5 XYZFile
|  2> % pal
|  3>     nprocs 8
|  4> end
|  5> %method
|  6>     SymThresh 5.0e-2
|  7> end
|  8> % geom 
|  9>     MaxIter 10
| 10> end 
| 11> % maxcore 2000
| 12> % output
| 13>     printlevel mini
| 14>     print[ P_Basis ] 0
| 15>     print[ P_SCFInfo ] 1
| 16>     print[ P_SCFIterInfo ] 1
| 17>     print[ P_OrbEn ] 0
| 18>     print[ P_Cartesian ] 0
| 19> end
| 20> % elprop
| 21>     Dipole false
| 22> end
| 23> *xyz 1 1
| 24>  C        0.9389422621     0.0915883345    -0.0925215922 
| 25>  C        2.4488206155     0.1196522410    -0.1157869244 
| 26>  O        2.9874571378     0.5581594438    -1.3530997335 
| 27>  C        2.9983833931     1.1283375579     0.8773520817 
| 28>  N        4.4606524603     1.3001733968     0.5917533983 
| 29>  H        0.5640177446    -0.6480751551    -0.8020535957 
| 30>  H        0.5291376379     1.0675264586    -0.3597299121 
| 31>  H        0.5686091441    -0.1897824688     0.8958452222 
| 32>  H        2.8426617089    -0.8783854548     0.1283071127 
| 33>  H        2.6610665775     0.0210831776    -2.0811976139 
| 34>  H        2.8699202878     0.8188039503     1.9130880934 
| 35>  H        2.5352193902     2.1035851588     0.7223124375 
| 36>  H        5.0123279350     0.5095996459     0.9286724502 
| 37>  H        4.8459094124     2.1538597204     0.9950480510 
| 38>  H        4.5413042926     1.3261939932    -0.4371294752 
| 39> *
| 40> 
| 41>                          ****END OF INPUT****
================================================================================

The point group is C1 - hence turning off symmetry
If this is a round-off problem, please increase the symmetry
        detection tolerance (%method SymThresh)


                       *****************************
                       * Geometry Optimization Run *
                       *****************************

Geometry optimization settings:
Update method            Update   .... BFGS
Choice of coordinates    CoordSys .... Redundant Internals
Initial Hessian          InHess   .... Almoef's Model

Convergence Tolerances:
Energy Change            TolE     ....  1.0000e-06 Eh
Max. Gradient            TolMAXG  ....  1.0000e-04 Eh/bohr
RMS Gradient             TolRMSG  ....  3.0000e-05 Eh/bohr
Max. Displacement        TolMAXD  ....  1.0000e-03 bohr
RMS Displacement         TolRMSD  ....  6.0000e-04 bohr

------------------------------------------------------------------------------
                        ORCA OPTIMIZATION COORDINATE SETUP
------------------------------------------------------------------------------

The optimization will be done in new redundant internal coordinates
Making redundant internal coordinates   ...  (new redundants) done
Evaluating the initial hessian          ...  (Almloef) done
Evaluating the coordinates              ...  done
Calculating the B-matrix                .... done
Calculating the G-matrix                .... done
Diagonalizing the G-matrix              .... done
The first mode is                       ....   30
The number of degrees of freedom        ....   39

    -----------------------------------------------------------------
                    Redundant Internal Coordinates


    -----------------------------------------------------------------
         Definition                    Initial Value    Approx d2E/dq
    -----------------------------------------------------------------
      1. B(C   1,C   0)                  1.5103         0.401586   
      2. B(O   2,C   1)                  1.4189         0.503176   
      3. B(C   3,C   1)                  1.5185         0.389720   
      4. B(N   4,C   3)                  1.4998         0.373884   
      5. B(H   5,C   0)                  1.0914         0.358282   
      6. B(H   6,C   0)                  1.0917         0.357866   
      7. B(H   7,C   0)                  1.0923         0.357031   
      8. B(H   8,C   1)                  1.1004         0.346664   
      9. B(H   9,O   2)                  0.9618         0.516481   
     10. B(H  10,C   3)                  1.0886         0.361949   
     11. B(H  11,C   3)                  1.0907         0.359151   
     12. B(H  12,N   4)                  1.0212         0.415252   
     13. B(H  13,N   4)                  1.0197         0.417514   
     14. B(H  14,N   4)                  1.0324         0.398575   
     15. A(C   1,C   0,H   5)          110.2436         0.327928   
     16. A(H   6,C   0,H   7)          108.9339         0.290165   
     17. A(C   1,C   0,H   7)          110.9563         0.327738   
     18. A(C   1,C   0,H   6)          110.7869         0.327865   
     19. A(H   5,C   0,H   7)          107.2898         0.290218   
     20. A(H   5,C   0,H   6)          108.5291         0.290325   
     21. A(C   3,C   1,H   8)          109.1403         0.324547   
     22. A(O   2,C   1,C   3)          103.1586         0.382868   
     23. A(C   0,C   1,H   8)          109.7276         0.326152   
     24. A(C   0,C   1,C   3)          111.3509         0.370562   
     25. A(O   2,C   1,H   8)          109.7474         0.336517   
     26. A(C   0,C   1,O   2)          113.4952         0.384870   
     27. A(C   1,O   2,H   9)          111.0216         0.356734   
     28. A(C   1,C   3,H  10)          112.9970         0.326859   
     29. A(N   4,C   3,H  11)          106.5295         0.322287   
     30. A(C   1,C   3,H  11)          110.3220         0.326441   
     31. A(N   4,C   3,H  10)          109.1968         0.322697   
     32. A(H  10,C   3,H  11)          109.8384         0.290953   
     33. A(C   1,C   3,N   4)          107.7237         0.363764   
     34. A(H  13,N   4,H  14)          110.0928         0.297615   
     35. A(H  12,N   4,H  14)          107.8254         0.297358   
     36. A(C   3,N   4,H  14)          105.5954         0.325068   
     37. A(H  12,N   4,H  13)          108.2716         0.299559   
     38. A(C   3,N   4,H  13)          112.8898         0.327562   
     39. A(C   3,N   4,H  12)          112.0357         0.327269   
     40. D(C   3,C   1,C   0,H   7)    -60.5075         0.012792   
     41. D(C   3,C   1,C   0,H   5)   -179.2225         0.012792   
     42. D(H   8,C   1,C   0,H   6)   -178.4318         0.012792   
     43. D(C   3,C   1,C   0,H   6)     60.6262         0.012792   
     44. D(H   8,C   1,C   0,H   5)    -58.2804         0.012792   
     45. D(O   2,C   1,C   0,H   7)   -176.3851         0.012792   
     46. D(O   2,C   1,C   0,H   6)    -55.2515         0.012792   
     47. D(O   2,C   1,C   0,H   5)     64.8999         0.012792   
     48. D(H   8,C   1,C   0,H   7)     60.4345         0.012792   
     49. D(H   9,O   2,C   1,H   8)     67.3530         0.020024   
     50. D(H   9,O   2,C   1,C   3)   -176.4353         0.020024   
     51. D(H   9,O   2,C   1,C   0)    -55.8164         0.020024   
     52. D(N   4,C   3,C   1,C   0)   -168.3659         0.012076   
     53. D(N   4,C   3,C   1,O   2)    -46.2942         0.012076   
     54. D(H  11,C   3,C   1,H   8)   -173.7467         0.012076   
     55. D(H  11,C   3,C   1,O   2)     69.6103         0.012076   
     56. D(H  11,C   3,C   1,C   0)    -52.4614         0.012076   
     57. D(H  10,C   3,C   1,H   8)    -50.3579         0.012076   
     58. D(H  10,C   3,C   1,O   2)   -167.0008         0.012076   
     59. D(H  10,C   3,C   1,C   0)     70.9275         0.012076   
     60. D(N   4,C   3,C   1,H   8)     70.3487         0.012076   
     61. D(H  14,N   4,C   3,H  11)    -77.0127         0.012814   
     62. D(H  14,N   4,C   3,H  10)    164.4214         0.012814   
     63. D(H  14,N   4,C   3,C   1)     41.3575         0.012814   
     64. D(H  13,N   4,C   3,H  11)     43.3189         0.012814   
     65. D(H  13,N   4,C   3,H  10)    -75.2469         0.012814   
     66. D(H  13,N   4,C   3,C   1)    161.6891         0.012814   
     67. D(H  12,N   4,C   3,H  11)    165.8684         0.012814   
     68. D(H  12,N   4,C   3,H  10)     47.3025         0.012814   
     69. D(H  12,N   4,C   3,C   1)    -75.7614         0.012814   
    -----------------------------------------------------------------

Number of atoms                         .... 15
Number of degrees of freedom            .... 69

         *************************************************************
         *                GEOMETRY OPTIMIZATION CYCLE   1            *
         *************************************************************


           ************************************************************
           *        Program running with 8 parallel MPI-processes     *
           *              working on a common directory               *
           ************************************************************
           ************************************************************
           *              Shut down parallel processing               *
           ************************************************************


           ************************************************************
           *        Program running with 8 parallel MPI-processes     *
           *              working on a common directory               *
           ************************************************************
------------
SCF SETTINGS
------------
Hamiltonian:
 Density Functional     Method          .... DFT(GTOs)
 Exchange Functional    Exchange        .... PBE
   PBE kappa parameter  XKappa          ....  0.804000
 Correlation Functional Correlation     .... PBE
 LDA part of GGA corr.  LDAOpt          .... PW91-LDA
 Gradients option       PostSCFGGA      .... off
 Hybrid DFT is turned on
   Fraction HF Exchange ScalHFX         ....  0.250000
   Scaling of DF-GGA-X  ScalDFX         ....  0.750000
   Scaling of DF-GGA-C  ScalDFC         ....  1.000000
   Scaling of DF-LDA-C  ScalLDAC        ....  1.000000
   Perturbative correction              ....  0.000000
   NL short-range parameter             ....  6.900000


General Settings:
 Integral files         IntName         .... 0192_+
 Hartree-Fock type      HFTyp           .... RHF
 Total Charge           Charge          ....    1
 Multiplicity           Mult            ....    1
 Number of Electrons    NEL             ....   42
 Basis Dimension        Dim             ....  215
 Nuclear Repulsion      ENuc            ....    207.1048246743 Eh

Convergence Acceleration:
 DIIS                   CNVDIIS         .... on
   Start iteration      DIISMaxIt       ....    12
   Startup error        DIISStart       ....  0.200000
   # of expansion vecs  DIISMaxEq       ....     5
   Bias factor          DIISBfac        ....   1.050
   Max. coefficient     DIISMaxC        ....  10.000
 Newton-Raphson         CNVNR           .... off
 SOSCF                  CNVSOSCF        .... on
   Start iteration      SOSCFMaxIt      ....   150
   Startup grad/error   SOSCFStart      ....  0.003300
 Level Shifting         CNVShift        .... on
   Level shift para.    LevelShift      ....    0.2500
   Turn off err/grad.   ShiftErr        ....    0.0010
 Zerner damping         CNVZerner       .... off
 Static damping         CNVDamp         .... on
   Fraction old density DampFac         ....    0.7000
   Max. Damping (<1)    DampMax         ....    0.9800
   Min. Damping (>=0)   DampMin         ....    0.0000
   Turn off err/grad.   DampErr         ....    0.1000
 Fernandez-Rico         CNVRico         .... off

SCF Procedure:
 Maximum # iterations   MaxIter         ....   125
 SCF integral mode      SCFMode         .... Direct
   Integral package                     .... LIBINT
 Reset frequeny         DirectResetFreq ....    20
 Integral Threshold     Thresh          ....  2.500e-11 Eh
 Primitive CutOff       TCut            ....  2.500e-12 Eh

Convergence Tolerance:
 Convergence Check Mode ConvCheckMode   .... Total+1el-Energy
 Energy Change          TolE            ....  1.000e-08 Eh
 1-El. energy change                    ....  1.000e-05 Eh
 Orbital Gradient       TolG            ....  1.000e-05
 Orbital Rotation angle TolX            ....  1.000e-05
 DIIS Error             TolErr          ....  5.000e-07


Diagonalization of the overlap matrix:
Smallest eigenvalue                        ... 2.133e-04
Time for diagonalization                   ...    0.016 sec
Threshold for overlap eigenvalues          ... 1.000e-08
Number of eigenvalues below threshold      ... 0
Time for construction of square roots      ...    0.004 sec
Total time needed                          ...    0.021 sec

-------------------
DFT GRID GENERATION
-------------------

General Integration Accuracy     IntAcc      ...  4.340
Radial Grid Type                 RadialGrid  ... Gauss-Chebyshev
Angular Grid (max. acc.)         AngularGrid ... Lebedev-194
Angular grid pruning method      GridPruning ... 3 (G Style)
Weight generation scheme         WeightScheme... Becke
Basis function cutoff            BFCut       ...    1.0000e-11
Integration weight cutoff        WCut        ...    1.0000e-14
Grids for H and He will be reduced by one unit

# of grid points (after initial pruning)     ...  31814 (   0.0 sec)
# of grid points (after weights+screening)   ...  29439 (   0.0 sec)
nearest neighbour list constructed           ...    0.0 sec
Grid point re-assignment to atoms done       ...    0.0 sec
Grid point division into batches done        ...    0.0 sec
Reduced shell lists constructed in    0.1 sec

Total number of grid points                  ...    29439
Total number of batches                      ...      467
Average number of points per batch           ...       63
Average number of grid points per atom       ...     1963
Average number of shells per batch           ...    80.55 (84.79%)
Average number of basis functions per batch  ...   188.28 (87.57%)
Average number of large shells per batch     ...    68.40 (84.92%)
Average number of large basis fcns per batch ...   160.73 (85.37%)
Maximum spatial batch extension              ...   5.04,  8.51,  6.55 au
Average spatial batch extension              ...   0.16,  0.16,  0.16 au

Time for grid setup =    0.138 sec

Loading Hartree-Fock densities                     ... done
Calculating cut-offs                               ... done
Setting up the integral package                    ... done
Initializing the effective Hamiltonian             ... done
Starting the Coulomb interaction                   ... done (   0.0 sec)
Reading the grid                                   ... done
Mapping shells                                     ... done
Starting the XC term evaluation                    ... done (   0.1 sec)
  promolecular density results
     # of electrons  =     42.994343728
     EX              =    -33.047504992
     EC              =     -1.415105113
     EX+EC           =    -34.462610105
Transforming the Hamiltonian                       ... done (   0.0 sec)
Diagonalizing the Hamiltonian                      ... done (   0.0 sec)
Back transforming the eigenvectors                 ... done (   0.0 sec)
Now organizing SCF variables                       ... done
--------------
SCF ITERATIONS
--------------
ITER       Energy         Delta-E        Max-DP      RMS-DP      [F,P]     Damp
               ***  Starting incremental Fock matrix formation  ***
  0   -249.7449227139   0.000000000000 0.03914726  0.00101835  0.2302713 0.7000
  1   -249.8093640583  -0.064441344386 0.03144721  0.00075083  0.1004361 0.7000
                               ***Turning on DIIS***
  2   -249.8359132302  -0.026549171962 0.04783029  0.00127368  0.0376919 0.0000
  3   -249.8769625678  -0.041049337514 0.02438374  0.00052271  0.0544290 0.0000
  4   -249.8859793491  -0.009016781388 0.00589563  0.00014217  0.0086836 0.0000
  5   -249.8862657460  -0.000286396866 0.00187540  0.00005766  0.0058940 0.0000
                      *** Initiating the SOSCF procedure ***
                           *** Shutting down DIIS ***
                      *** Re-Reading the Fockian *** 
                      *** Removing any level shift *** 
ITER      Energy       Delta-E        Grad      Rot      Max-DP    RMS-DP
  6   -249.88630674  -0.0000409909  0.000128  0.000128  0.001160  0.000031
               *** Restarting incremental Fock matrix formation ***
  7   -249.88630822  -0.0000014879  0.000059  0.000086  0.000162  0.000005
  8   -249.88630819   0.0000000358  0.000065  0.000044  0.000086  0.000002
  9   -249.88630840  -0.0000002064  0.000003  0.000004  0.000012  0.000000
                 **** Energy Check signals convergence ****
              ***Rediagonalizing the Fockian in SOSCF/NRSCF***

               *****************************************************
               *                     SUCCESS                       *
               *           SCF CONVERGED AFTER  10 CYCLES          *
               *****************************************************

Setting up the final grid:

General Integration Accuracy     IntAcc      ...  5.010
Radial Grid Type                 RadialGrid  ... Gauss-Chebyshev
Angular Grid (max. acc.)         AngularGrid ... Lebedev-434
Angular grid pruning method      GridPruning ... 3 (G Style)
Weight generation scheme         WeightScheme... Becke
Basis function cutoff            BFCut       ...    1.0000e-11
Integration weight cutoff        WCut        ...    1.0000e-14
Grids for H and He will be reduced by one unit

# of grid points (after initial pruning)     ... 120446 (   0.0 sec)
# of grid points (after weights+screening)   ... 110124 (   0.1 sec)
nearest neighbour list constructed           ...    0.0 sec
Grid point re-assignment to atoms done       ...    0.0 sec
Grid point division into batches done        ...    0.7 sec
Reduced shell lists constructed in    0.9 sec

Total number of grid points                  ...   110124
Total number of batches                      ...     1729
Average number of points per batch           ...       63
Average number of grid points per atom       ...     7342
Average number of shells per batch           ...    79.44 (83.62%)
Average number of basis functions per batch  ...   186.05 (86.54%)
Average number of large shells per batch     ...    66.26 (83.41%)
Average number of large basis fcns per batch ...   155.38 (83.51%)
Maximum spatial batch extension              ...   6.05, 13.33,  8.25 au
Average spatial batch extension              ...   0.11,  0.12,  0.12 au

Final grid set up in    1.0 sec
Final integration                            ... done (   0.4 sec)
Change in XC energy                          ...     0.000185026
Integrated number of electrons               ...    42.000018081
Previous integrated no of electrons          ...    41.999682691
Total Energy       :         -249.88612337 Eh           -6799.74711 eV
  Last Energy change         ...   -3.1301e-10  Tolerance :   1.0000e-08
  Last MAX-Density change    ...    4.6367e-06  Tolerance :   1.0000e-07
             **** THE GBW FILE WAS UPDATED (0192_+.gbw) ****
             **** DENSITY FILE WAS UPDATED (0192_+.scfp.tmp) ****
             **** ENERGY FILE WAS UPDATED (0192_+.en.tmp) ****
Total SCF time: 0 days 0 hours 0 min 27 sec 
           ************************************************************
           *              Shut down parallel processing               *
           ************************************************************

-------------------------   --------------------
FINAL SINGLE POINT ENERGY      -249.886123369606
-------------------------   --------------------



           ************************************************************
           *        Program running with 8 parallel MPI-processes     *
           *              working on a common directory               *
           ************************************************************
------------------------------------------------------------------------------
                         ORCA SCF GRADIENT CALCULATION
------------------------------------------------------------------------------

Gradient of the Kohn-Sham DFT energy:
Kohn-Sham wavefunction type      ... RKS
Hartree-Fock exchange scaling    ...    0.250
Number of operators              ...    1
Number of atoms                  ...   15
Basis set dimensions             ...  215
Integral neglect threshold       ... 2.5e-11
Integral primitive cutoff        ... 2.5e-12

Nuclear repulsion gradient       ... done
One Electron Gradient            ... done
Pre-screening matrix             ... done
Starting the two electron gradient:
Two electron gradient done
Exchange-correlation gradient    ... done

------------------
CARTESIAN GRADIENT
------------------

   1   C   :    0.000117560    0.000090076    0.000080739
   2   C   :   -0.000103812   -0.000129654   -0.000224725
   3   O   :   -0.000040623   -0.000007741    0.000031762
   4   C   :   -0.000091245    0.000222444    0.000242909
   5   N   :   -0.000004122   -0.000135215   -0.000216366
   6   H   :    0.000032451    0.000002224   -0.000070102
   7   H   :    0.000021576    0.000081045   -0.000040958
   8   H   :   -0.000033462   -0.000077576    0.000038440
   9   H   :    0.000047706   -0.000015440   -0.000027534
  10   H   :    0.000025151   -0.000036554    0.000034095
  11   H   :   -0.000041203   -0.000035934    0.000032130
  12   H   :    0.000052414   -0.000076925   -0.000009365
  13   H   :    0.000053467    0.000080543   -0.000010332
  14   H   :   -0.000015992    0.000073898    0.000018021
  15   H   :   -0.000019867   -0.000035192    0.000121285

Norm of the cartesian gradient     ...    0.000604566
RMS gradient                       ...    0.000090123
MAX gradient                       ...    0.000242909

-------
TIMINGS
-------

Total SCF gradient time            ...       14.226 sec

One electron gradient       ....       0.063 sec  (  0.4%)
Prescreening matrices       ....       0.172 sec  (  1.2%)
Two electron gradient       ....      10.864 sec  ( 76.4%)
XC gradient                 ....       2.102 sec  ( 14.8%)
           ************************************************************
           *              Shut down parallel processing               *
           ************************************************************
------------------------------------------------------------------------------
                         ORCA GEOMETRY RELAXATION STEP
------------------------------------------------------------------------------

Reading the OPT-File                    .... done
Getting information on internals        .... done
Copying old internal coords+grads       .... done
Making the new internal coordinates     .... (new redundants).... done
Validating the new internal coordinates .... (new redundants).... done
Calculating the B-matrix                .... done
Calculating the G,G- and P matrices     .... done
Transforming gradient to internals      .... done
Projecting the internal gradient        .... done
Number of atoms                         ....  15
Number of internal coordinates          ....  69
Current Energy                          ....  -249.886123370 Eh
Current gradient norm                   ....     0.000604566 Eh/bohr
Maximum allowed component of the step   ....  0.300
Current trust radius                    ....  0.300
Evaluating the initial hessian          ....  (Almloef) done
Projecting the Hessian                  .... done
Forming the augmented Hessian           .... done
Diagonalizing the augmented Hessian     .... done
Last element of RFO vector              ....  0.999983020
Lowest eigenvalues of augmented Hessian:
 -0.000000965  0.012075810  0.012791973  0.012813703  0.020024461
Length of the computed step             ....  0.005827648
The final length of the internal step   ....  0.005827648
Converting the step to cartesian space:
 Initial RMS(Int)=    0.0007015664
Transforming coordinates:
 Iter   0:  RMS(Cart)=    0.0012056035 RMS(Int)=    0.0007015319
 Iter   1:  RMS(Cart)=    0.0000006381 RMS(Int)=    0.0000003506
 Iter   2:  RMS(Cart)=    0.0000000006 RMS(Int)=    0.0000000004
done
Storing new coordinates                 .... done

                                .--------------------.
          ----------------------|Geometry convergence|---------------------
          Item                value                 Tolerance   Converged
          -----------------------------------------------------------------
          RMS gradient        0.00005257            0.00003000      NO
          MAX gradient        0.00019896            0.00010000      NO
          RMS step            0.00070157            0.00060000      NO
          MAX step            0.00155335            0.00100000      NO
          ....................................................
          Max(Bonds)      0.0003      Max(Angles)    0.02
          Max(Dihed)        0.09      Max(Improp)    0.00
          -----------------------------------------------------------------

The optimization has not yet converged - more geometry cycles are needed


    ---------------------------------------------------------------------------
                         Redundant Internal Coordinates
                            (Angstroem and degrees)

        Definition                    Value    dE/dq     Step     New-Value
    ----------------------------------------------------------------------------
     1. B(C   1,C   0)                1.5103 -0.000161  0.0002    1.5105   
     2. B(O   2,C   1)                1.4189  0.000065 -0.0001    1.4189   
     3. B(C   3,C   1)                1.5185 -0.000199  0.0003    1.5188   
     4. B(N   4,C   3)                1.4998 -0.000016  0.0000    1.4998   
     5. B(H   5,C   0)                1.0914 -0.000064  0.0001    1.0915   
     6. B(H   6,C   0)                1.0917 -0.000088  0.0001    1.0918   
     7. B(H   7,C   0)                1.0923 -0.000042  0.0001    1.0924   
     8. B(H   8,C   1)                1.1004 -0.000010  0.0000    1.1004   
     9. B(H   9,O   2)                0.9618 -0.000002  0.0000    0.9618   
    10. B(H  10,C   3)                1.0886 -0.000037  0.0001    1.0887   
    11. B(H  11,C   3)                1.0907  0.000070 -0.0001    1.0906   
    12. B(H  12,N   4)                1.0212  0.000092 -0.0001    1.0211   
    13. B(H  13,N   4)                1.0197 -0.000064  0.0001    1.0198   
    14. B(H  14,N   4)                1.0324  0.000125 -0.0002    1.0322   
    15. A(C   1,C   0,H   5)          110.24 -0.000002   -0.00    110.24   
    16. A(H   6,C   0,H   7)          108.93 -0.000053    0.02    108.95   
    17. A(C   1,C   0,H   7)          110.96  0.000094   -0.02    110.94   
    18. A(C   1,C   0,H   6)          110.79 -0.000031    0.01    110.79   
    19. A(H   5,C   0,H   7)          107.29 -0.000037    0.00    107.29   
    20. A(H   5,C   0,H   6)          108.53  0.000027   -0.01    108.52   
    21. A(C   3,C   1,H   8)          109.14 -0.000052    0.02    109.16   
    22. A(O   2,C   1,C   3)          103.16 -0.000007    0.00    103.16   
    23. A(C   0,C   1,H   8)          109.73  0.000006   -0.00    109.73   
    24. A(C   0,C   1,C   3)          111.35  0.000052   -0.01    111.34   
    25. A(O   2,C   1,H   8)          109.75  0.000029   -0.01    109.74   
    26. A(C   0,C   1,O   2)          113.50 -0.000030    0.00    113.50   
    27. A(C   1,O   2,H   9)          111.02  0.000098   -0.02    111.01   
    28. A(C   1,C   3,H  10)          113.00 -0.000069    0.02    113.01   
    29. A(N   4,C   3,H  11)          106.53 -0.000060    0.01    106.54   
    30. A(C   1,C   3,H  11)          110.32  0.000030   -0.01    110.31   
    31. A(N   4,C   3,H  10)          109.20 -0.000010    0.00    109.20   
    32. A(H  10,C   3,H  11)          109.84  0.000008    0.01    109.85   
    33. A(C   1,C   3,N   4)          107.72  0.000104   -0.02    107.70   
    34. A(H  13,N   4,H  14)          110.09  0.000001    0.00    110.09   
    35. A(H  12,N   4,H  14)          107.83  0.000005   -0.00    107.82   
    36. A(C   3,N   4,H  14)          105.60 -0.000041    0.01    105.60   
    37. A(H  12,N   4,H  13)          108.27 -0.000042    0.01    108.28   
    38. A(C   3,N   4,H  13)          112.89  0.000039   -0.01    112.88   
    39. A(C   3,N   4,H  12)          112.04  0.000037   -0.01    112.03   
    40. D(C   3,C   1,C   0,H   7)    -60.51  0.000035   -0.06    -60.57   
    41. D(C   3,C   1,C   0,H   5)   -179.22  0.000022   -0.06   -179.28   
    42. D(H   8,C   1,C   0,H   6)   -178.43 -0.000018   -0.03   -178.47   
    43. D(C   3,C   1,C   0,H   6)     60.63  0.000010   -0.05     60.58   
    44. D(H   8,C   1,C   0,H   5)    -58.28 -0.000006   -0.04    -58.32   
    45. D(O   2,C   1,C   0,H   7)   -176.39  0.000028   -0.06   -176.44   
    46. D(O   2,C   1,C   0,H   6)    -55.25  0.000004   -0.05    -55.30   
    47. D(O   2,C   1,C   0,H   5)     64.90  0.000016   -0.05     64.85   
    48. D(H   8,C   1,C   0,H   7)     60.43  0.000007   -0.05     60.39   
    49. D(H   9,O   2,C   1,H   8)     67.35  0.000031   -0.04     67.31   
    50. D(H   9,O   2,C   1,C   3)   -176.44 -0.000020   -0.02   -176.46   
    51. D(H   9,O   2,C   1,C   0)    -55.82  0.000022   -0.03    -55.85   
    52. D(N   4,C   3,C   1,C   0)   -168.37 -0.000008    0.09   -168.28   
    53. D(N   4,C   3,C   1,O   2)    -46.29 -0.000021    0.09    -46.21   
    54. D(H  11,C   3,C   1,H   8)   -173.75 -0.000010    0.07   -173.67   
    55. D(H  11,C   3,C   1,O   2)     69.61 -0.000018    0.08     69.69   
    56. D(H  11,C   3,C   1,C   0)    -52.46 -0.000005    0.08    -52.38   
    57. D(H  10,C   3,C   1,H   8)    -50.36 -0.000028    0.09    -50.27   
    58. D(H  10,C   3,C   1,O   2)   -167.00 -0.000035    0.09   -166.91   
    59. D(H  10,C   3,C   1,C   0)     70.93 -0.000022    0.09     71.02   
    60. D(N   4,C   3,C   1,H   8)     70.35 -0.000013    0.09     70.43   
    61. D(H  14,N   4,C   3,H  11)    -77.01 -0.000018   -0.03    -77.04   
    62. D(H  14,N   4,C   3,H  10)    164.42  0.000012   -0.04    164.38   
    63. D(H  14,N   4,C   3,C   1)     41.36  0.000038   -0.05     41.30   
    64. D(H  13,N   4,C   3,H  11)     43.32 -0.000021   -0.03     43.29   
    65. D(H  13,N   4,C   3,H  10)    -75.25  0.000009   -0.04    -75.29   
    66. D(H  13,N   4,C   3,C   1)    161.69  0.000035   -0.05    161.64   
    67. D(H  12,N   4,C   3,H  11)    165.87 -0.000019   -0.03    165.84   
    68. D(H  12,N   4,C   3,H  10)     47.30  0.000012   -0.04     47.26   
    69. D(H  12,N   4,C   3,C   1)    -75.76  0.000038   -0.05    -75.81   
    ----------------------------------------------------------------------------

         *************************************************************
         *                GEOMETRY OPTIMIZATION CYCLE   2            *
         *************************************************************
---------------------------------
CARTESIAN COORDINATES (ANGSTROEM)
---------------------------------
  C     -1.948230   -0.094042   -0.159563
  C     -0.528174    0.371986    0.059438
  O      0.000544    0.000930    1.322743
  C      0.426814   -0.285346   -0.921645
  N      1.824435   -0.000440   -0.458097
  H     -2.620259    0.398403    0.545552
  H     -2.027963   -1.173755   -0.018351
  H     -2.291253    0.158440   -1.165500
  H     -0.473221    1.464464   -0.060054
  H     -0.559344    0.318311    2.037521
  H      0.306624    0.077879   -1.940862
  H      0.306850   -1.369091   -0.898238
  H      2.107868    0.958857   -0.663140
  H      2.513869   -0.631727   -0.865738
  H      1.804733   -0.111625    0.567909

----------------------------
CARTESIAN COORDINATES (A.U.)
----------------------------
  NO LB      ZA    FRAG    MASS        X           Y           Z
   0 C     6.0000    0    12.011         -3.681620230568707         -0.177713194524241         -0.301531197969200
   1 C     6.0000    0    12.011         -0.998104429294218          0.702951812920620          0.112321589340467
   2 O     8.0000    0    15.999          0.001027295012974          0.001756931448522          2.499622721909312
   3 C     6.0000    0    12.011          0.806560682560291         -0.539226340749061         -1.741656421536804
   4 N     7.0000    0    14.007          3.447682522393288         -0.000830556378579         -0.865677640414359
   5 H     1.0000    0     1.008         -4.951572337113304          0.752872615620277          1.030944439873057
   6 H     1.0000    0     1.008         -3.832294412356364         -2.218075129277270         -0.034678267719422
   7 H     1.0000    0     1.008         -4.329839810065811          0.299408841246614         -2.202476099209774
   8 H     1.0000    0     1.008         -0.894257595597823          2.767435669688760         -0.113485145439435
   9 H     1.0000    0     1.008         -1.057006839205256          0.601520475536778          3.850356043149648
  10 H     1.0000    0     1.008          0.579434922277346          0.147170117299337         -3.667696834839826
  11 H     1.0000    0     1.008          0.579861864917361         -2.587207271653714         -1.697423927823200
  12 H     1.0000    0     1.008          3.983292676347534          1.811977825551646         -1.253152393601592
  13 H     1.0000    0     1.008          4.750524054271725         -1.193791575937640         -1.636007472846539
  14 H     1.0000    0     1.008          3.410450834266050         -0.210941562625476          1.073191824263473

--------------------------------
INTERNAL COORDINATES (ANGSTROEM)
--------------------------------
 C      0   0   0   0.000000     0.000     0.000
 C      1   0   0   1.510530     0.000     0.000
 O      2   1   0   1.418861   113.498     0.000
 C      2   1   3   1.518753   111.343   115.875
 N      4   2   1   1.499798   107.703   191.723
 H      1   2   3   1.091473   110.241    64.847
 H      1   2   3   1.091824   110.793   304.703
 H      1   2   3   1.092392   110.941   183.556
 H      2   1   3   1.100366   109.725   236.831
 H      3   2   1   0.961827   111.006   304.152
 H      4   2   1   1.088660   113.014    71.016
 H      4   2   1   1.090615   110.307   307.617
 H      5   4   2   1.021091   112.029   284.185
 H      5   4   2   1.019811   112.883   161.637
 H      5   4   2   1.032200   105.603    41.304

---------------------------
INTERNAL COORDINATES (A.U.)
---------------------------
 C      0   0   0   0.000000     0.000     0.000
 C      1   0   0   2.854488     0.000     0.000
 O      2   1   0   2.681258   113.498     0.000
 C      2   1   3   2.870027   111.343   115.875
 N      4   2   1   2.834208   107.703   191.723
 H      1   2   3   2.062586   110.241    64.847
 H      1   2   3   2.063247   110.793   304.703
 H      1   2   3   2.064322   110.941   183.556
 H      2   1   3   2.079391   109.725   236.831
 H      3   2   1   1.817590   111.006   304.152
 H      4   2   1   2.057270   113.014    71.016
 H      4   2   1   2.060965   110.307   307.617
 H      5   4   2   1.929583   112.029   284.185
 H      5   4   2   1.927164   112.883   161.637
 H      5   4   2   1.950576   105.603    41.304



           ************************************************************
           *        Program running with 8 parallel MPI-processes     *
           *              working on a common directory               *
           ************************************************************
           ************************************************************
           *              Shut down parallel processing               *
           ************************************************************


           ************************************************************
           *        Program running with 8 parallel MPI-processes     *
           *              working on a common directory               *
           ************************************************************

Diagonalization of the overlap matrix:
Smallest eigenvalue                        ... 2.133e-04
Time for diagonalization                   ...    0.012 sec
Threshold for overlap eigenvalues          ... 1.000e-08
Number of eigenvalues below threshold      ... 0
Time for construction of square roots      ...    0.005 sec
Total time needed                          ...    0.017 sec

-------------------
DFT GRID GENERATION
-------------------

General Integration Accuracy     IntAcc      ...  4.340
Radial Grid Type                 RadialGrid  ... Gauss-Chebyshev
Angular Grid (max. acc.)         AngularGrid ... Lebedev-194
Angular grid pruning method      GridPruning ... 3 (G Style)
Weight generation scheme         WeightScheme... Becke
Basis function cutoff            BFCut       ...    1.0000e-11
Integration weight cutoff        WCut        ...    1.0000e-14
Grids for H and He will be reduced by one unit

# of grid points (after initial pruning)     ...  31814 (   0.0 sec)
# of grid points (after weights+screening)   ...  29441 (   0.0 sec)
nearest neighbour list constructed           ...    0.0 sec
Grid point re-assignment to atoms done       ...    0.0 sec
Grid point division into batches done        ...    0.0 sec
Reduced shell lists constructed in    0.1 sec

Total number of grid points                  ...    29441
Total number of batches                      ...      467
Average number of points per batch           ...       63
Average number of grid points per atom       ...     1963
Average number of shells per batch           ...    80.57 (84.81%)
Average number of basis functions per batch  ...   188.53 (87.69%)
Average number of large shells per batch     ...    68.32 (84.80%)
Average number of large basis fcns per batch ...   160.48 (85.12%)
Maximum spatial batch extension              ...   5.04,  8.51,  6.55 au
Average spatial batch extension              ...   0.16,  0.16,  0.16 au

Time for grid setup =    0.137 sec

--------------
SCF ITERATIONS
--------------
ITER       Energy         Delta-E        Max-DP      RMS-DP      [F,P]     Damp
               ***  Starting incremental Fock matrix formation  ***
                      *** Initiating the SOSCF procedure ***
                      *** Re-Reading the Fockian *** 
                      *** Removing any level shift *** 
ITER      Energy       Delta-E        Grad      Rot      Max-DP    RMS-DP
  0   -249.88630641 -249.8863064120  0.000077  0.000077  0.000127  0.000005
               *** Restarting incremental Fock matrix formation ***
  1   -249.88630730  -0.0000008849  0.000024  0.000057  0.000052  0.000002
  2   -249.88630737  -0.0000000778  0.000015  0.000024  0.000047  0.000001
  3   -249.88630738  -0.0000000027  0.000013  0.000013  0.000024  0.000001
                  ***Gradient check signals convergence***
              ***Rediagonalizing the Fockian in SOSCF/NRSCF***

               *****************************************************
               *                     SUCCESS                       *
               *           SCF CONVERGED AFTER   4 CYCLES          *
               *****************************************************

Setting up the final grid:

General Integration Accuracy     IntAcc      ...  5.010
Radial Grid Type                 RadialGrid  ... Gauss-Chebyshev
Angular Grid (max. acc.)         AngularGrid ... Lebedev-434
Angular grid pruning method      GridPruning ... 3 (G Style)
Weight generation scheme         WeightScheme... Becke
Basis function cutoff            BFCut       ...    1.0000e-11
Integration weight cutoff        WCut        ...    1.0000e-14
Grids for H and He will be reduced by one unit

# of grid points (after initial pruning)     ... 120446 (   0.0 sec)
# of grid points (after weights+screening)   ... 110125 (   0.1 sec)
nearest neighbour list constructed           ...    0.0 sec
Grid point re-assignment to atoms done       ...    0.0 sec
Grid point division into batches done        ...    0.7 sec
Reduced shell lists constructed in    1.0 sec

Total number of grid points                  ...   110125
Total number of batches                      ...     1729
Average number of points per batch           ...       63
Average number of grid points per atom       ...     7342
Average number of shells per batch           ...    79.38 (83.56%)
Average number of basis functions per batch  ...   185.89 (86.46%)
Average number of large shells per batch     ...    66.26 (83.47%)
Average number of large basis fcns per batch ...   155.33 (83.56%)
Maximum spatial batch extension              ...   6.05, 13.33,  8.25 au
Average spatial batch extension              ...   0.11,  0.12,  0.12 au

Final grid set up in    1.1 sec
Final integration                            ... done (   0.5 sec)
Change in XC energy                          ...     0.000183415
Integrated number of electrons               ...    42.000018257
Previous integrated no of electrons          ...    41.999665282
Total Energy       :         -249.88612397 Eh           -6799.74713 eV
  Last Energy change         ...   -1.1448e-08  Tolerance :   1.0000e-08
  Last MAX-Density change    ...    4.6255e-06  Tolerance :   1.0000e-07
             **** THE GBW FILE WAS UPDATED (0192_+.gbw) ****
             **** DENSITY FILE WAS UPDATED (0192_+.scfp.tmp) ****
             **** ENERGY FILE WAS UPDATED (0192_+.en.tmp) ****
Total SCF time: 0 days 0 hours 0 min 13 sec 
           ************************************************************
           *              Shut down parallel processing               *
           ************************************************************

-------------------------   --------------------
FINAL SINGLE POINT ENERGY      -249.886123974446
-------------------------   --------------------



           ************************************************************
           *        Program running with 8 parallel MPI-processes     *
           *              working on a common directory               *
           ************************************************************
------------------------------------------------------------------------------
                         ORCA SCF GRADIENT CALCULATION
------------------------------------------------------------------------------

Gradient of the Kohn-Sham DFT energy:
Kohn-Sham wavefunction type      ... RKS
Hartree-Fock exchange scaling    ...    0.250
Number of operators              ...    1
Number of atoms                  ...   15
Basis set dimensions             ...  215
Integral neglect threshold       ... 2.5e-11
Integral primitive cutoff        ... 2.5e-12

Nuclear repulsion gradient       ... done
One Electron Gradient            ... done
Pre-screening matrix             ... done
Starting the two electron gradient:
Two electron gradient done
Exchange-correlation gradient    ... done

------------------
CARTESIAN GRADIENT
------------------

   1   C   :    0.000062495    0.000076129    0.000038940
   2   C   :   -0.000031880   -0.000091168   -0.000099610
   3   O   :    0.000002633    0.000013680   -0.000018230
   4   C   :   -0.000050378    0.000086863    0.000121449
   5   N   :   -0.000050991   -0.000009784   -0.000003507
   6   H   :   -0.000002426    0.000016769   -0.000023685
   7   H   :    0.000007719   -0.000001703   -0.000015460
   8   H   :   -0.000032055   -0.000046560   -0.000001026
   9   H   :    0.000039701    0.000010308    0.000001867
  10   H   :    0.000010928   -0.000019670    0.000016771
  11   H   :   -0.000031535   -0.000024473   -0.000013864
  12   H   :    0.000040954   -0.000011903    0.000000910
  13   H   :    0.000013159    0.000002227    0.000014682
  14   H   :    0.000019943    0.000013947   -0.000004762
  15   H   :    0.000001735   -0.000014663   -0.000014475

Norm of the cartesian gradient     ...    0.000265323
RMS gradient                       ...    0.000039552
MAX gradient                       ...    0.000121449

-------
TIMINGS
-------

Total SCF gradient time            ...       14.085 sec

One electron gradient       ....       0.063 sec  (  0.4%)
Prescreening matrices       ....       0.175 sec  (  1.2%)
Two electron gradient       ....      10.890 sec  ( 77.3%)
XC gradient                 ....       2.114 sec  ( 15.0%)
           ************************************************************
           *              Shut down parallel processing               *
           ************************************************************
------------------------------------------------------------------------------
                         ORCA GEOMETRY RELAXATION STEP
------------------------------------------------------------------------------

Reading the OPT-File                    .... done
Getting information on internals        .... done
Copying old internal coords+grads       .... done
Making the new internal coordinates     .... (new redundants).... done
Validating the new internal coordinates .... (new redundants).... done
Calculating the B-matrix                .... done
Calculating the G,G- and P matrices     .... done
Transforming gradient to internals      .... done
Projecting the internal gradient        .... done
Number of atoms                         ....  15
Number of internal coordinates          ....  69
Current Energy                          ....  -249.886123974 Eh
Current gradient norm                   ....     0.000265323 Eh/bohr
Maximum allowed component of the step   ....  0.300
Current trust radius                    ....  0.300
Updating the Hessian (BFGS)             .... done
Forming the augmented Hessian           .... done
Diagonalizing the augmented Hessian     .... done
Last element of RFO vector              ....  0.999968997
Lowest eigenvalues of augmented Hessian:
 -0.000000631  0.007444004  0.012712540  0.012895001  0.019757073
Length of the computed step             ....  0.007874567
The final length of the internal step   ....  0.007874567
Converting the step to cartesian space:
 Initial RMS(Int)=    0.0009479865
Transforming coordinates:
 Iter   0:  RMS(Cart)=    0.0014023205 RMS(Int)=    0.0009479702
 Iter   1:  RMS(Cart)=    0.0000009366 RMS(Int)=    0.0000006252
 Iter   2:  RMS(Cart)=    0.0000000013 RMS(Int)=    0.0000000009
done
Storing new coordinates                 .... done

                                .--------------------.
          ----------------------|Geometry convergence|---------------------
          Item                value                 Tolerance   Converged
          -----------------------------------------------------------------
          Energy change      -0.00000060            0.00000100      YES
          RMS gradient        0.00002474            0.00003000      YES
          MAX gradient        0.00012050            0.00010000      NO
          RMS step            0.00094799            0.00060000      NO
          MAX step            0.00169000            0.00100000      NO
          ....................................................
          Max(Bonds)      0.0004      Max(Angles)    0.02
          Max(Dihed)        0.10      Max(Improp)    0.00
          -----------------------------------------------------------------

The optimization has not yet converged - more geometry cycles are needed


    ---------------------------------------------------------------------------
                         Redundant Internal Coordinates
                            (Angstroem and degrees)

        Definition                    Value    dE/dq     Step     New-Value
    ----------------------------------------------------------------------------
     1. B(C   1,C   0)                1.5105 -0.000047  0.0002    1.5107   
     2. B(O   2,C   1)                1.4189  0.000006 -0.0000    1.4188   
     3. B(C   3,C   1)                1.5188 -0.000120  0.0004    1.5191   
     4. B(N   4,C   3)                1.4998 -0.000018  0.0001    1.4999   
     5. B(H   5,C   0)                1.0915 -0.000007  0.0000    1.0915   
     6. B(H   6,C   0)                1.0918 -0.000002  0.0000    1.0919   
     7. B(H   7,C   0)                1.0924  0.000001  0.0000    1.0924   
     8. B(H   8,C   1)                1.1004  0.000012 -0.0000    1.1003   
     9. B(H   9,O   2)                0.9618 -0.000001  0.0000    0.9618   
    10. B(H  10,C   3)                1.0887  0.000009 -0.0000    1.0887   
    11. B(H  11,C   3)                1.0906  0.000007 -0.0001    1.0906   
    12. B(H  12,N   4)                1.0211  0.000002 -0.0000    1.0210   
    13. B(H  13,N   4)                1.0198  0.000007  0.0000    1.0198   
    14. B(H  14,N   4)                1.0322 -0.000012 -0.0000    1.0322   
    15. A(C   1,C   0,H   5)          110.24  0.000001   -0.00    110.24   
    16. A(H   6,C   0,H   7)          108.95 -0.000036    0.02    108.97   
    17. A(C   1,C   0,H   7)          110.94  0.000064   -0.02    110.92   
    18. A(C   1,C   0,H   6)          110.79 -0.000019    0.01    110.80   
    19. A(H   5,C   0,H   7)          107.29 -0.000026    0.01    107.30   
    20. A(H   5,C   0,H   6)          108.52  0.000014   -0.01    108.51   
    21. A(C   3,C   1,H   8)          109.16 -0.000027    0.02    109.18   
    22. A(O   2,C   1,C   3)          103.16 -0.000035    0.01    103.17   
    23. A(C   0,C   1,H   8)          109.73  0.000001   -0.01    109.72   
    24. A(C   0,C   1,C   3)          111.34  0.000046   -0.02    111.32   
    25. A(O   2,C   1,H   8)          109.74  0.000008   -0.00    109.74   
    26. A(C   0,C   1,O   2)          113.50  0.000004   -0.00    113.49   
    27. A(C   1,O   2,H   9)          111.01  0.000049   -0.02    110.99   
    28. A(C   1,C   3,H  10)          113.01 -0.000018    0.01    113.03   
    29. A(N   4,C   3,H  11)          106.54 -0.000024    0.01    106.55   
    30. A(C   1,C   3,H  11)          110.31  0.000040   -0.02    110.28   
    31. A(N   4,C   3,H  10)          109.20  0.000032   -0.01    109.19   
    32. A(H  10,C   3,H  11)          109.85 -0.000010    0.01    109.85   
    33. A(C   1,C   3,N   4)          107.70 -0.000021   -0.00    107.70   
    34. A(H  13,N   4,H  14)          110.09 -0.000007    0.00    110.10   
    35. A(H  12,N   4,H  14)          107.82 -0.000004    0.00    107.83   
    36. A(C   3,N   4,H  14)          105.60 -0.000012    0.01    105.61   
    37. A(H  12,N   4,H  13)          108.28 -0.000021    0.01    108.29   
    38. A(C   3,N   4,H  13)          112.88  0.000021   -0.01    112.87   
    39. A(C   3,N   4,H  12)          112.03  0.000022   -0.01    112.02   
    40. D(C   3,C   1,C   0,H   7)    -60.57  0.000014   -0.09    -60.66   
    41. D(C   3,C   1,C   0,H   5)   -179.28  0.000005   -0.08   -179.36   
    42. D(H   8,C   1,C   0,H   6)   -178.47 -0.000005   -0.07   -178.53   
    43. D(C   3,C   1,C   0,H   6)     60.58 -0.000001   -0.07     60.50   
    44. D(H   8,C   1,C   0,H   5)    -58.32  0.000002   -0.07    -58.40   
    45. D(O   2,C   1,C   0,H   7)   -176.44  0.000024   -0.10   -176.54   
    46. D(O   2,C   1,C   0,H   6)    -55.30  0.000009   -0.08    -55.37   
    47. D(O   2,C   1,C   0,H   5)     64.85  0.000016   -0.09     64.76   
    48. D(H   8,C   1,C   0,H   7)     60.39  0.000010   -0.08     60.30   
    49. D(H   9,O   2,C   1,H   8)     67.31  0.000026   -0.06     67.25   
    50. D(H   9,O   2,C   1,C   3)   -176.46 -0.000020   -0.03   -176.49   
    51. D(H   9,O   2,C   1,C   0)    -55.85  0.000016   -0.05    -55.90   
    52. D(N   4,C   3,C   1,C   0)   -168.28  0.000006    0.08   -168.19   
    53. D(N   4,C   3,C   1,O   2)    -46.21  0.000014    0.08    -46.13   
    54. D(H  11,C   3,C   1,H   8)   -173.67 -0.000026    0.10   -173.58   
    55. D(H  11,C   3,C   1,O   2)     69.69 -0.000005    0.08     69.77   
    56. D(H  11,C   3,C   1,C   0)    -52.38 -0.000013    0.09    -52.30   
    57. D(H  10,C   3,C   1,H   8)    -50.27 -0.000022    0.10    -50.18   
    58. D(H  10,C   3,C   1,O   2)   -166.91 -0.000001    0.08   -166.83   
    59. D(H  10,C   3,C   1,C   0)     71.02 -0.000009    0.09     71.11   
    60. D(N   4,C   3,C   1,H   8)     70.43 -0.000007    0.09     70.52   
    61. D(H  14,N   4,C   3,H  11)    -77.04 -0.000001   -0.07    -77.12   
    62. D(H  14,N   4,C   3,H  10)    164.38  0.000008   -0.08    164.29   
    63. D(H  14,N   4,C   3,C   1)     41.30  0.000023   -0.09     41.21   
    64. D(H  13,N   4,C   3,H  11)     43.29 -0.000005   -0.07     43.22   
    65. D(H  13,N   4,C   3,H  10)    -75.29  0.000003   -0.08    -75.37   
    66. D(H  13,N   4,C   3,C   1)    161.64  0.000018   -0.09    161.55   
    67. D(H  12,N   4,C   3,H  11)    165.84 -0.000000   -0.07    165.77   
    68. D(H  12,N   4,C   3,H  10)     47.26  0.000008   -0.08     47.17   
    69. D(H  12,N   4,C   3,C   1)    -75.81  0.000023   -0.09    -75.91   
    ----------------------------------------------------------------------------

         *************************************************************
         *                GEOMETRY OPTIMIZATION CYCLE   3            *
         *************************************************************
---------------------------------
CARTESIAN COORDINATES (ANGSTROEM)
---------------------------------
  C     -1.948218   -0.094656   -0.159407
  C     -0.528278    0.372387    0.059423
  O      0.000663    0.001895    1.322762
  C      0.426910   -0.284886   -0.922087
  N      1.824570   -0.000961   -0.457885
  H     -2.620262    0.396412    0.546729
  H     -2.027151   -1.174623   -0.019321
  H     -2.291661    0.159087   -1.164901
  H     -0.474229    1.464878   -0.060120
  H     -0.559220    0.319835    2.037297
  H      0.307443    0.079041   -1.941134
  H      0.306046   -1.368491   -0.899230
  H      2.108894    0.957882   -0.663594
  H      2.513540   -0.633286   -0.864732
  H      1.804246   -0.111269    0.568176

----------------------------
CARTESIAN COORDINATES (A.U.)
----------------------------
  NO LB      ZA    FRAG    MASS        X           Y           Z
   0 C     6.0000    0    12.011         -3.681597535232184         -0.178874838415594         -0.301234852396584
   1 C     6.0000    0    12.011         -0.998301358309052          0.703710186352810          0.112293495756193
   2 O     8.0000    0    15.999          0.001252743729064          0.003581240332811          2.499657457348566
   3 C     6.0000    0    12.011          0.806742445552791         -0.538355739934709         -1.742491339474838
   4 N     7.0000    0    14.007          3.447938007757988         -0.001816325166015         -0.865276767926080
   5 H     1.0000    0     1.008         -4.951578244923664          0.749109758254530          1.033168523336220
   6 H     1.0000    0     1.008         -3.830760858842028         -2.219715918223522         -0.036511115236444
   7 H     1.0000    0     1.008         -4.330612106850110          0.300630837691947         -2.201344746311243
   8 H     1.0000    0     1.008         -0.896163331501981          2.768218370425582         -0.113611082421505
   9 H     1.0000    0     1.008         -1.056771877953427          0.604399918423259          3.849933729433964
  10 H     1.0000    0     1.008          0.580983659651593          0.149365051337101         -3.668211743316709
  11 H     1.0000    0     1.008          0.578342483697962         -2.586072564370062         -1.699297752854862
  12 H     1.0000    0     1.008          3.985231953643490          1.810133939871312         -1.254011438105723
  13 H     1.0000    0     1.008          4.749902486188155         -1.196737741751734         -1.634107330900738
  14 H     1.0000    0     1.008          3.409530731236490         -0.210267516661144          1.073696180205590

--------------------------------
INTERNAL COORDINATES (ANGSTROEM)
--------------------------------
 C      0   0   0   0.000000     0.000     0.000
 C      1   0   0   1.510710     0.000     0.000
 O      2   1   0   1.418826   113.494     0.000
 C      2   1   3   1.519129   111.324   115.878
 N      4   2   1   1.499850   107.702   191.805
 H      1   2   3   1.091522   110.237    64.760
 H      1   2   3   1.091871   110.803   304.626
 H      1   2   3   1.092410   110.917   183.460
 H      2   1   3   1.100340   109.717   236.843
 H      3   2   1   0.961829   110.987   304.104
 H      4   2   1   1.088656   113.026    71.105
 H      4   2   1   1.090564   110.284   307.704
 H      5   4   2   1.021046   112.018   284.092
 H      5   4   2   1.019823   112.874   161.549
 H      5   4   2   1.032173   105.610    41.211

---------------------------
INTERNAL COORDINATES (A.U.)
---------------------------
 C      0   0   0   0.000000     0.000     0.000
 C      1   0   0   2.854828     0.000     0.000
 O      2   1   0   2.681193   113.494     0.000
 C      2   1   3   2.870738   111.324   115.878
 N      4   2   1   2.834307   107.702   191.805
 H      1   2   3   2.062678   110.237    64.760
 H      1   2   3   2.063337   110.803   304.626
 H      1   2   3   2.064355   110.917   183.460
 H      2   1   3   2.079341   109.717   236.843
 H      3   2   1   1.817593   110.987   304.104
 H      4   2   1   2.057262   113.026    71.105
 H      4   2   1   2.060868   110.284   307.704
 H      5   4   2   1.929498   112.018   284.092
 H      5   4   2   1.927187   112.874   161.549
 H      5   4   2   1.950524   105.610    41.211



           ************************************************************
           *        Program running with 8 parallel MPI-processes     *
           *              working on a common directory               *
           ************************************************************
           ************************************************************
           *              Shut down parallel processing               *
           ************************************************************


           ************************************************************
           *        Program running with 8 parallel MPI-processes     *
           *              working on a common directory               *
           ************************************************************

Diagonalization of the overlap matrix:
Smallest eigenvalue                        ... 2.134e-04
Time for diagonalization                   ...    0.012 sec
Threshold for overlap eigenvalues          ... 1.000e-08
Number of eigenvalues below threshold      ... 0
Time for construction of square roots      ...    0.005 sec
Total time needed                          ...    0.017 sec

-------------------
DFT GRID GENERATION
-------------------

General Integration Accuracy     IntAcc      ...  4.340
Radial Grid Type                 RadialGrid  ... Gauss-Chebyshev
Angular Grid (max. acc.)         AngularGrid ... Lebedev-194
Angular grid pruning method      GridPruning ... 3 (G Style)
Weight generation scheme         WeightScheme... Becke
Basis function cutoff            BFCut       ...    1.0000e-11
Integration weight cutoff        WCut        ...    1.0000e-14
Grids for H and He will be reduced by one unit

# of grid points (after initial pruning)     ...  31814 (   0.0 sec)
# of grid points (after weights+screening)   ...  29438 (   0.0 sec)
nearest neighbour list constructed           ...    0.0 sec
Grid point re-assignment to atoms done       ...    0.0 sec
Grid point division into batches done        ...    0.0 sec
Reduced shell lists constructed in    0.1 sec

Total number of grid points                  ...    29438
Total number of batches                      ...      467
Average number of points per batch           ...       63
Average number of grid points per atom       ...     1963
Average number of shells per batch           ...    80.57 (84.81%)
Average number of basis functions per batch  ...   188.60 (87.72%)
Average number of large shells per batch     ...    68.30 (84.77%)
Average number of large basis fcns per batch ...   160.43 (85.07%)
Maximum spatial batch extension              ...   5.04,  8.51,  6.55 au
Average spatial batch extension              ...   0.16,  0.16,  0.16 au

Time for grid setup =    0.137 sec

--------------
SCF ITERATIONS
--------------
ITER       Energy         Delta-E        Max-DP      RMS-DP      [F,P]     Damp
               ***  Starting incremental Fock matrix formation  ***
                      *** Initiating the SOSCF procedure ***
                      *** Re-Reading the Fockian *** 
                      *** Removing any level shift *** 
ITER      Energy       Delta-E        Grad      Rot      Max-DP    RMS-DP
  0   -249.88630470 -249.8863046987  0.000119  0.000119  0.000172  0.000005
               *** Restarting incremental Fock matrix formation ***
  1   -249.88630597  -0.0000012664  0.000032  0.000058  0.000064  0.000003
  2   -249.88630608  -0.0000001177  0.000009  0.000022  0.000040  0.000001
  3   -249.88630608   0.0000000045  0.000014  0.000010  0.000024  0.000001
                  ***Gradient check signals convergence***
              ***Rediagonalizing the Fockian in SOSCF/NRSCF***

               *****************************************************
               *                     SUCCESS                       *
               *           SCF CONVERGED AFTER   4 CYCLES          *
               *****************************************************

Setting up the final grid:

General Integration Accuracy     IntAcc      ...  5.010
Radial Grid Type                 RadialGrid  ... Gauss-Chebyshev
Angular Grid (max. acc.)         AngularGrid ... Lebedev-434
Angular grid pruning method      GridPruning ... 3 (G Style)
Weight generation scheme         WeightScheme... Becke
Basis function cutoff            BFCut       ...    1.0000e-11
Integration weight cutoff        WCut        ...    1.0000e-14
Grids for H and He will be reduced by one unit

# of grid points (after initial pruning)     ... 120446 (   0.0 sec)
# of grid points (after weights+screening)   ... 110128 (   0.1 sec)
nearest neighbour list constructed           ...    0.0 sec
Grid point re-assignment to atoms done       ...    0.0 sec
Grid point division into batches done        ...    0.7 sec
Reduced shell lists constructed in    0.9 sec

Total number of grid points                  ...   110128
Total number of batches                      ...     1728
Average number of points per batch           ...       63
Average number of grid points per atom       ...     7342
Average number of shells per batch           ...    79.41 (83.59%)
Average number of basis functions per batch  ...   185.94 (86.48%)
Average number of large shells per batch     ...    66.30 (83.49%)
Average number of large basis fcns per batch ...   155.47 (83.61%)
Maximum spatial batch extension              ...   6.05, 13.34,  8.25 au
Average spatial batch extension              ...   0.11,  0.12,  0.12 au

Final grid set up in    1.1 sec
Final integration                            ... done (   0.5 sec)
Change in XC energy                          ...     0.000181835
Integrated number of electrons               ...    42.000018471
Previous integrated no of electrons          ...    41.999646831
Total Energy       :         -249.88612425 Eh           -6799.74713 eV
  Last Energy change         ...   -1.0984e-08  Tolerance :   1.0000e-08
  Last MAX-Density change    ...    2.1073e-06  Tolerance :   1.0000e-07
             **** THE GBW FILE WAS UPDATED (0192_+.gbw) ****
             **** DENSITY FILE WAS UPDATED (0192_+.scfp.tmp) ****
             **** ENERGY FILE WAS UPDATED (0192_+.en.tmp) ****
Total SCF time: 0 days 0 hours 0 min 13 sec 
           ************************************************************
           *              Shut down parallel processing               *
           ************************************************************

-------------------------   --------------------
FINAL SINGLE POINT ENERGY      -249.886124254775
-------------------------   --------------------



           ************************************************************
           *        Program running with 8 parallel MPI-processes     *
           *              working on a common directory               *
           ************************************************************
------------------------------------------------------------------------------
                         ORCA SCF GRADIENT CALCULATION
------------------------------------------------------------------------------

Gradient of the Kohn-Sham DFT energy:
Kohn-Sham wavefunction type      ... RKS
Hartree-Fock exchange scaling    ...    0.250
Number of operators              ...    1
Number of atoms                  ...   15
Basis set dimensions             ...  215
Integral neglect threshold       ... 2.5e-11
Integral primitive cutoff        ... 2.5e-12

Nuclear repulsion gradient       ... done
One Electron Gradient            ... done
Pre-screening matrix             ... done
Starting the two electron gradient:
Two electron gradient done
Exchange-correlation gradient    ... done

------------------
CARTESIAN GRADIENT
------------------

   1   C   :   -0.000009363    0.000028822    0.000008926
   2   C   :    0.000010594   -0.000009910    0.000016966
   3   O   :   -0.000006992    0.000028599    0.000009307
   4   C   :    0.000017288   -0.000022192   -0.000057547
   5   N   :   -0.000012631    0.000022670    0.000052703
   6   H   :   -0.000018701    0.000013777    0.000008811
   7   H   :   -0.000001595   -0.000036142    0.000008483
   8   H   :   -0.000007888   -0.000010330   -0.000016700
   9   H   :    0.000012193    0.000014105    0.000023710
  10   H   :   -0.000004102   -0.000005461    0.000000875
  11   H   :    0.000000985   -0.000018694   -0.000021914
  12   H   :    0.000008552    0.000018684    0.000009662
  13   H   :   -0.000013735   -0.000021468    0.000019933
  14   H   :    0.000014868   -0.000007038   -0.000015300
  15   H   :    0.000010527    0.000004578   -0.000047916

Norm of the cartesian gradient     ...    0.000136865
RMS gradient                       ...    0.000020403
MAX gradient                       ...    0.000057547

-------
TIMINGS
-------

Total SCF gradient time            ...       14.131 sec

One electron gradient       ....       0.063 sec  (  0.4%)
Prescreening matrices       ....       0.157 sec  (  1.1%)
Two electron gradient       ....      10.962 sec  ( 77.6%)
XC gradient                 ....       2.102 sec  ( 14.9%)
           ************************************************************
           *              Shut down parallel processing               *
           ************************************************************
------------------------------------------------------------------------------
                         ORCA GEOMETRY RELAXATION STEP
------------------------------------------------------------------------------

Reading the OPT-File                    .... done
Getting information on internals        .... done
Copying old internal coords+grads       .... done
Making the new internal coordinates     .... (new redundants).... done
Validating the new internal coordinates .... (new redundants).... done
Calculating the B-matrix                .... done
Calculating the G,G- and P matrices     .... done
Transforming gradient to internals      .... done
Projecting the internal gradient        .... done
Number of atoms                         ....  15
Number of internal coordinates          ....  69
Current Energy                          ....  -249.886124255 Eh
Current gradient norm                   ....     0.000136865 Eh/bohr
Maximum allowed component of the step   ....  0.300
Current trust radius                    ....  0.300
Updating the Hessian (BFGS)             .... done
Forming the augmented Hessian           .... done
Diagonalizing the augmented Hessian     .... done
Last element of RFO vector              ....  0.999991528
Lowest eigenvalues of augmented Hessian:
 -0.000000129  0.005054393  0.012670232  0.012895541  0.019639605
Length of the computed step             ....  0.004116380
The final length of the internal step   ....  0.004116380
Converting the step to cartesian space:
 Initial RMS(Int)=    0.0004955539
Transforming coordinates:
 Iter   0:  RMS(Cart)=    0.0006826162 RMS(Int)=    0.0004955468
 Iter   1:  RMS(Cart)=    0.0000002496 RMS(Int)=    0.0000001844
 Iter   2:  RMS(Cart)=    0.0000000002 RMS(Int)=    0.0000000001
done
Storing new coordinates                 .... done

                                .--------------------.
          ----------------------|Geometry convergence|---------------------
          Item                value                 Tolerance   Converged
          -----------------------------------------------------------------
          Energy change      -0.00000028            0.00000100      YES
          RMS gradient        0.00001489            0.00003000      YES
          MAX gradient        0.00006396            0.00010000      YES
          RMS step            0.00049555            0.00060000      YES
          MAX step            0.00098470            0.00100000      YES
          ....................................................
          Max(Bonds)      0.0000      Max(Angles)    0.01
          Max(Dihed)        0.06      Max(Improp)    0.00
          -----------------------------------------------------------------

                    ***********************HURRAY********************
                    ***        THE OPTIMIZATION HAS CONVERGED     ***
                    *************************************************


    ---------------------------------------------------------------------------
                         Redundant Internal Coordinates

                          --- Optimized Parameters ---  
                            (Angstroem and degrees)

        Definition                    OldVal   dE/dq     Step     FinalVal
    ----------------------------------------------------------------------------
     1. B(C   1,C   0)                1.5107  0.000035  0.0000    1.5107   
     2. B(O   2,C   1)                1.4188 -0.000000 -0.0000    1.4188   
     3. B(C   3,C   1)                1.5191  0.000064 -0.0000    1.5191   
     4. B(N   4,C   3)                1.4999  0.000003  0.0000    1.4999   
     5. B(H   5,C   0)                1.0915  0.000023 -0.0000    1.0915   
     6. B(H   6,C   0)                1.0919  0.000036 -0.0000    1.0918   
     7. B(H   7,C   0)                1.0924  0.000016 -0.0000    1.0924   
     8. B(H   8,C   1)                1.1003  0.000012 -0.0000    1.1003   
     9. B(H   9,O   2)                0.9618  0.000001 -0.0000    0.9618   
    10. B(H  10,C   3)                1.0887  0.000015 -0.0000    1.0886   
    11. B(H  11,C   3)                1.0906 -0.000020  0.0000    1.0906   
    12. B(H  12,N   4)                1.0210 -0.000028  0.0000    1.0211   
    13. B(H  13,N   4)                1.0198  0.000020 -0.0000    1.0198   
    14. B(H  14,N   4)                1.0322 -0.000048  0.0000    1.0322   
    15. A(C   1,C   0,H   5)          110.24  0.000007   -0.00    110.23   
    16. A(H   6,C   0,H   7)          108.97 -0.000005    0.01    108.98   
    17. A(C   1,C   0,H   7)          110.92  0.000008   -0.01    110.91   
    18. A(C   1,C   0,H   6)          110.80 -0.000005    0.00    110.81   
    19. A(H   5,C   0,H   7)          107.30 -0.000005    0.00    107.30   
    20. A(H   5,C   0,H   6)          108.51 -0.000000   -0.00    108.51   
    21. A(C   3,C   1,H   8)          109.18 -0.000004    0.01    109.18   
    22. A(O   2,C   1,C   3)          103.17  0.000021   -0.00    103.17   
    23. A(C   0,C   1,H   8)          109.72  0.000008   -0.00    109.72   
    24. A(C   0,C   1,C   3)          111.32  0.000001   -0.01    111.32   
    25. A(O   2,C   1,H   8)          109.74 -0.000012    0.01    109.74   
    26. A(C   0,C   1,O   2)          113.49 -0.000013    0.00    113.50   
    27. A(C   1,O   2,H   9)          110.99  0.000002   -0.01    110.98   
    28. A(C   1,C   3,H  10)          113.03  0.000011   -0.00    113.03   
    29. A(N   4,C   3,H  11)          106.55 -0.000000    0.01    106.56   
    30. A(C   1,C   3,H  11)          110.28  0.000008   -0.01    110.28   
    31. A(N   4,C   3,H  10)          109.19  0.000008   -0.00    109.19   
    32. A(H  10,C   3,H  11)          109.85 -0.000007    0.00    109.86   
    33. A(C   1,C   3,N   4)          107.70 -0.000021    0.00    107.70   
    34. A(H  13,N   4,H  14)          110.10 -0.000003    0.00    110.10   
    35. A(H  12,N   4,H  14)          107.83 -0.000008    0.00    107.83   
    36. A(C   3,N   4,H  14)          105.61  0.000011    0.00    105.61   
    37. A(H  12,N   4,H  13)          108.29  0.000002    0.00    108.29   
    38. A(C   3,N   4,H  13)          112.87 -0.000001   -0.00    112.87   
    39. A(C   3,N   4,H  12)          112.02 -0.000000   -0.00    112.02   
    40. D(C   3,C   1,C   0,H   7)    -60.66  0.000013   -0.05    -60.71   
    41. D(C   3,C   1,C   0,H   5)   -179.36  0.000009   -0.05   -179.41   
    42. D(H   8,C   1,C   0,H   6)   -178.53  0.000009   -0.04   -178.57   
    43. D(C   3,C   1,C   0,H   6)     60.50  0.000008   -0.04     60.46   
    44. D(H   8,C   1,C   0,H   5)    -58.40  0.000010   -0.05    -58.44   
    45. D(O   2,C   1,C   0,H   7)   -176.54 -0.000006   -0.04   -176.58   
    46. D(O   2,C   1,C   0,H   6)    -55.37 -0.000010   -0.03    -55.41   
    47. D(O   2,C   1,C   0,H   5)     64.76 -0.000009   -0.04     64.72   
    48. D(H   8,C   1,C   0,H   7)     60.30  0.000013   -0.05     60.25   
    49. D(H   9,O   2,C   1,H   8)     67.25  0.000002   -0.03     67.22   
    50. D(H   9,O   2,C   1,C   3)   -176.49  0.000003   -0.02   -176.52   
    51. D(H   9,O   2,C   1,C   0)    -55.90  0.000011   -0.04    -55.93   
    52. D(N   4,C   3,C   1,C   0)   -168.19  0.000005    0.03   -168.16   
    53. D(N   4,C   3,C   1,O   2)    -46.13  0.000003    0.03    -46.10   
    54. D(H  11,C   3,C   1,H   8)   -173.58 -0.000010    0.04   -173.54   
    55. D(H  11,C   3,C   1,O   2)     69.77 -0.000005    0.03     69.80   
    56. D(H  11,C   3,C   1,C   0)    -52.30 -0.000003    0.04    -52.26   
    57. D(H  10,C   3,C   1,H   8)    -50.18 -0.000005    0.04    -50.14   
    58. D(H  10,C   3,C   1,O   2)   -166.83  0.000000    0.03   -166.80   
    59. D(H  10,C   3,C   1,C   0)     71.11  0.000003    0.04     71.14   
    60. D(N   4,C   3,C   1,H   8)     70.52 -0.000002    0.04     70.56   
    61. D(H  14,N   4,C   3,H  11)    -77.12  0.000003   -0.05    -77.16   
    62. D(H  14,N   4,C   3,H  10)    164.29  0.000007   -0.05    164.24   
    63. D(H  14,N   4,C   3,C   1)     41.21  0.000002   -0.05     41.16   
    64. D(H  13,N   4,C   3,H  11)     43.22  0.000006   -0.05     43.17   
    65. D(H  13,N   4,C   3,H  10)    -75.37  0.000010   -0.05    -75.42   
    66. D(H  13,N   4,C   3,C   1)    161.55  0.000004   -0.05    161.50   
    67. D(H  12,N   4,C   3,H  11)    165.77  0.000007   -0.05    165.72   
    68. D(H  12,N   4,C   3,H  10)     47.17  0.000011   -0.06     47.12   
    69. D(H  12,N   4,C   3,C   1)    -75.91  0.000006   -0.05    -75.96   
    ----------------------------------------------------------------------------
                 *******************************************************
[...]
     23       0.016363  -0.027110   0.011621   0.164562   0.098150   0.093601
     24      -0.320469  -0.544940   0.455266   0.169107   0.335718  -0.082403
     25       0.062324   0.017060   0.044735  -0.014751  -0.046161  -0.007084
     26      -0.046357   0.130947   0.740474   0.043422  -0.333449   0.016431
     27      -0.057546   0.117303   0.081058   0.002130  -0.153879   0.004518
     28       0.034765  -0.066544  -0.047044   0.005594   0.090645  -0.019240
     29      -0.067731   0.138271   0.101524  -0.001124  -0.182248   0.017318
     30      -0.687381  -0.208948  -0.291724   0.063049  -0.288069  -0.007978
     31      -0.018079   0.179155   0.066371  -0.018834   0.154856  -0.327989
     32       0.010424   0.095596   0.063100  -0.008984   0.052769  -0.085326
     33       0.501871  -0.580952  -0.075991   0.100190  -0.452775  -0.075263
     34      -0.034135   0.000693  -0.005102   0.004256   0.046115   0.018404
     35      -0.001287   0.110473   0.011748  -0.009700   0.222122  -0.345482
     36      -0.171820   0.136088  -0.040860  -0.029974   0.102266  -0.258837
     37      -0.056485   0.011252  -0.003719   0.001050  -0.016196   0.060514
     38      -0.186826   0.003117  -0.084318   0.001786  -0.004756  -0.156792
     39      -0.007365  -0.183173  -0.081116   0.040223  -0.026905  -0.231735
     40       0.072470  -0.082091  -0.004972   0.016940   0.009809  -0.115109
     41      -0.125601  -0.085316  -0.130696   0.011886  -0.009526  -0.259780
     42       0.181170  -0.004215  -0.051254  -0.020587   0.095245  -0.424585
     43       0.085375  -0.091314  -0.007089   0.019874  -0.027614  -0.051685
     44       0.076555   0.006923   0.029730  -0.003169   0.008328   0.023104
                 30         31         32         33         34         35    
      0       0.001736   0.002431   0.011195  -0.001656   0.000247   0.000872
      1       0.024723   0.025513  -0.001488   0.000970   0.001334  -0.006380
      2      -0.019768  -0.013330  -0.021466  -0.001270   0.000791   0.001060
      3      -0.023442  -0.018951   0.045508   0.006269   0.000893   0.004935
      4       0.022176   0.017257  -0.018366  -0.001076  -0.003846   0.082646
      5       0.006197  -0.015417  -0.077386   0.006038  -0.005571  -0.005392
      6       0.006570   0.001855  -0.015208  -0.001197   0.001275  -0.000668
      7      -0.005396  -0.001963   0.011951  -0.000240   0.001415  -0.000151
      8       0.003563   0.000980   0.005481  -0.001368   0.001260  -0.001558
      9      -0.015270   0.028852  -0.040630  -0.002864  -0.007584   0.000435
     10      -0.021240   0.024149  -0.002770  -0.008065   0.008887  -0.005998
     11      -0.025908   0.033448  -0.002287   0.013522   0.013038   0.001129
     12       0.048218  -0.024964  -0.039493  -0.026020  -0.021680  -0.000170
     13      -0.002466   0.001800  -0.017220  -0.037578   0.035130   0.000394
     14       0.014640  -0.001860  -0.020957   0.021338   0.028029  -0.000765
     15       0.133634   0.102461  -0.258580  -0.000313  -0.008126  -0.014191
     16      -0.306915  -0.329225  -0.348225   0.003915  -0.005343   0.009466
     17       0.333482   0.323571  -0.021928  -0.001207  -0.002555   0.018706
     18      -0.315550  -0.335929  -0.111631   0.008665   0.003217   0.001673
     19       0.050865   0.052107   0.072395  -0.000119   0.001662   0.064866
     20       0.088903   0.089893   0.495465  -0.001760   0.004570  -0.008607
     21       0.262299   0.276653   0.097750  -0.008656   0.001615  -0.001430
     22      -0.207971  -0.203640   0.355861  -0.002922   0.003540   0.003984
     23      -0.156844  -0.155488   0.045533   0.000460   0.000791  -0.019229
     24       0.068588   0.094975  -0.096533  -0.019123  -0.006721  -0.045747
     25       0.017674   0.018403   0.015449  -0.005441  -0.006981  -0.986087
     26      -0.034086   0.015778   0.239378  -0.006204  -0.000805   0.090895
     27      -0.066534   0.001491   0.115687  -0.016750  -0.003103  -0.002202
     28       0.027369  -0.006888  -0.067249  -0.001801   0.006783  -0.000075
     29      -0.065173   0.001968   0.136904  -0.012041  -0.006024  -0.004824
     30       0.118490  -0.216661   0.099951   0.051604   0.033326  -0.006441
     31       0.322156  -0.394596   0.205713  -0.019597  -0.000315   0.005066
     32       0.085992  -0.097191   0.060657   0.006896   0.008802  -0.010866
     33       0.169872  -0.166391   0.212466  -0.044243   0.023309   0.012018
     34      -0.029302   0.032800  -0.021897  -0.007915   0.007034   0.066905
     35       0.307596  -0.411781   0.191391  -0.034322   0.002537  -0.003986
     36      -0.199908   0.113798   0.128479   0.498353   0.146860  -0.006143
     37       0.027017  -0.016496  -0.032979  -0.185909  -0.162612  -0.002708
     38      -0.142754   0.070430   0.111581  -0.044547  -0.608657   0.002375
     39      -0.160916   0.092042   0.166710   0.172139   0.251007  -0.001190
     40      -0.063477   0.043496   0.077700   0.489917   0.225219  -0.002054
     41      -0.221213   0.116622   0.164794  -0.474748   0.150911  -0.000225
     42      -0.343680   0.208073   0.244357  -0.281952  -0.083575   0.002235
     43      -0.023252   0.012804   0.062417   0.353208  -0.655564   0.000274
     44       0.014530   0.000471  -0.014410   0.074752  -0.057442   0.009281
                 36         37         38         39         40         41    
      0      -0.046676  -0.002238  -0.011703  -0.030892  -0.001387  -0.000086
      1      -0.016828   0.001708  -0.009608   0.087676   0.004507   0.000144
      2      -0.009658   0.001819   0.091057   0.005260  -0.002679  -0.000465
      3       0.001379  -0.000562  -0.000135   0.000067  -0.000469  -0.000155
      4      -0.000770  -0.003788  -0.001240   0.006772   0.005709  -0.000617
      5       0.000442   0.001013   0.001666  -0.000348  -0.000811   0.001254
      6       0.000059  -0.000012  -0.000194   0.000083   0.000008  -0.000028
      7       0.000068   0.000136   0.000181  -0.000290  -0.000151   0.000085
      8       0.000064   0.000412  -0.000557   0.000077   0.000595  -0.000655
      9       0.000666  -0.012782   0.000623   0.000721  -0.001883  -0.003084
     10       0.000911  -0.051834   0.003568  -0.002897   0.069846   0.000772
     11       0.001108  -0.044177  -0.001173   0.004601  -0.065843  -0.004042
     12      -0.000038   0.000424   0.000122   0.000096   0.000164  -0.010905
     13       0.000009   0.001471  -0.000157   0.000022  -0.002198   0.004690
     14       0.000008   0.002000   0.000110  -0.000237   0.003253  -0.059140
     15       0.325762   0.026434   0.371689   0.355431   0.008116   0.002592
     16      -0.249106  -0.017908  -0.280160  -0.250796  -0.005680  -0.000432
     17      -0.356260  -0.026873  -0.378964  -0.384908  -0.008248  -0.000785
     18       0.033759   0.001981   0.011647  -0.056463  -0.005127   0.000369
     19       0.585888   0.000719   0.216025  -0.759052  -0.043557  -0.000375
     20      -0.076309   0.000430  -0.010463   0.101093   0.005222   0.000639
     21       0.179424   0.000955  -0.244586   0.068312   0.013340  -0.002433
     22      -0.139960  -0.000571   0.180980  -0.039875  -0.008426  -0.000184
     23       0.547264   0.003243  -0.699941   0.223328   0.036963  -0.000893
     24      -0.001382   0.000840   0.001765  -0.006467  -0.000002  -0.000586
     25       0.012680   0.046297   0.010868  -0.067921  -0.053823   0.007392
     26      -0.001985  -0.002977  -0.002413   0.004709   0.003199  -0.003049
     27      -0.000322   0.000061  -0.002130  -0.000653   0.000683  -0.005963
     28      -0.000912   0.000063  -0.001139   0.000566  -0.001335   0.001680
     29      -0.002776   0.000068  -0.002925  -0.003301   0.000284  -0.000391
     30      -0.002044   0.062122   0.002184  -0.006797   0.084573   0.011524
     31       0.006652  -0.203644  -0.004460   0.019909  -0.274156  -0.012536
     32      -0.016215   0.531314   0.012340  -0.053593   0.764416   0.034100
     33      -0.004131   0.089976  -0.004380   0.004029  -0.059584   0.003369
     34      -0.018142   0.808769  -0.038077   0.011927  -0.558854   0.000211
     35       0.001408  -0.026517   0.001392  -0.001186   0.006277   0.001131
     36       0.000611  -0.001030   0.000121  -0.001012  -0.003129   0.042746
     37       0.000434  -0.013663   0.000905  -0.001727   0.015522   0.166764
     38      -0.000201   0.005597  -0.000283   0.000404  -0.005929  -0.043354
     39      -0.000505  -0.003311  -0.000293   0.000066  -0.003331   0.120178
     40       0.000304  -0.003191   0.000642   0.000514   0.002904  -0.117419
     41       0.000087  -0.004765   0.000311   0.000335   0.002674  -0.073487
     42       0.000232   0.001939  -0.000995  -0.000378   0.006604   0.019813
     43      -0.000212   0.002954   0.000459  -0.000153   0.006349  -0.115185
     44       0.000473  -0.021188  -0.002619   0.001836  -0.033349   0.957048
                  42         43         44    
      0       0.000042  -0.000016  -0.000344
      1      -0.000009  -0.000032   0.000078
      2       0.000029   0.000044   0.000429
      3       0.000299   0.000446   0.001127
      4       0.000564  -0.000320  -0.000697
      5      -0.000171  -0.000036  -0.000125
      6       0.000074   0.000002   0.035554
      7      -0.000021   0.000084  -0.019892
      8       0.000155  -0.000053  -0.047843
      9      -0.000138   0.000274  -0.000038
     10      -0.001549   0.001271   0.000207
     11       0.000960  -0.000116   0.000273
     12      -0.041133  -0.027358  -0.000304
     13      -0.029328   0.074257  -0.000016
     14       0.043421   0.017484   0.000463
     15       0.000443   0.000202   0.000700
     16      -0.000122  -0.000289  -0.001812
     17      -0.000430  -0.000313  -0.001818
     18      -0.000231  -0.000164  -0.000205
     19      -0.000877   0.000451   0.000134
     20       0.000003  -0.000026  -0.000318
     21       0.000441   0.000052   0.001770
     22       0.000098  -0.000004   0.000223
     23       0.000364  -0.000031   0.000750
     24      -0.000642   0.000621   0.000894
     25      -0.004058   0.001569  -0.002028
     26       0.001230  -0.000396   0.003472
     27       0.003360   0.000830  -0.574546
     28      -0.001007  -0.000633   0.325152
     29      -0.001491  -0.000394   0.748442
     30      -0.001215   0.000163  -0.000263
     31       0.005492  -0.001989  -0.000263
     32      -0.010214   0.002627   0.000860
     33       0.005878  -0.003000  -0.000124
     34       0.013745  -0.016465  -0.000029
     35      -0.000577  -0.000730  -0.000008
     36       0.205925  -0.161304   0.000713
     37       0.748737  -0.542265   0.001109
     38      -0.162550   0.128930  -0.000480
     39       0.368544   0.540085   0.001314
     40      -0.362797  -0.503267  -0.001117
     41      -0.223056  -0.330941  -0.000233
     42      -0.014510  -0.005752   0.000765
     43       0.020511   0.018739  -0.000523
     44      -0.218856  -0.039565  -0.004606


-----------
IR SPECTRUM
-----------

 Mode    freq (cm**-1)   T**2         TX         TY         TZ
-------------------------------------------------------------------
   6:       145.20   14.635741  ( -1.336929  -3.164481   1.683574)
   7:       220.86   17.503308  (  0.307327   3.750437   1.828410)
   8:       240.66    3.929704  ( -0.431916  -1.859234  -0.535163)
   9:       268.02   27.569740  (  3.902859   2.090319  -2.822764)
  10:       299.21   91.818892  ( -4.158614  -8.473984  -1.648156)
  11:       382.35   36.984904  (  5.262411   1.062152  -2.857230)
  12:       481.15    3.073654  (  0.164129   0.980873   1.443816)
  13:       507.43   10.147650  (  1.818920  -0.592401   2.547203)
  14:       831.44    7.685403  ( -2.732116  -0.377867   0.279574)
  15:       868.44    3.382335  (  1.035050   1.503800  -0.222692)
  16:       925.45   22.596841  ( -0.050892  -0.246947   4.746922)
  17:       978.15   13.210025  ( -3.507748  -0.941833   0.136658)
  18:      1006.78   17.039890  ( -2.513204   3.266350   0.233773)
  19:      1050.01  107.180057  (  0.263593   0.983778 -10.302561)
  20:      1099.00    3.080449  (  0.861592  -1.474236   0.405877)
  21:      1171.05    5.728845  ( -0.913128   1.027453  -1.959434)
  22:      1188.44   45.484172  (  4.712514  -2.472164   4.143041)
  23:      1274.03   23.171855  (  3.020226  -1.181229   3.557357)
  24:      1341.74   14.450340  (  0.161196   1.991315  -3.234041)
  25:      1366.60    4.847641  (  1.557959  -1.183607   1.009694)
  26:      1381.46   11.994219  ( -1.603001  -0.247956  -3.059922)
  27:      1417.42   15.899957  ( -3.611830  -0.927058  -1.412517)
  28:      1431.75    4.168802  ( -0.924622   1.696998   0.658841)
  29:      1477.28   80.743428  ( -8.744878  -0.895963  -1.862201)
  30:      1485.48   58.016395  ( -7.523913  -1.152758  -0.279779)
  31:      1488.84   40.877443  (  5.441018  -3.356629  -0.076193)
  32:      1496.55   44.681657  (  5.072204   1.134557   4.203235)
  33:      1641.01   37.313061  (  1.028533   5.144694  -3.128466)
  34:      1669.78   36.790974  (  2.728482  -3.499558  -4.135149)
  35:      3004.43   24.146295  (  0.817757   4.489104  -1.823599)
  36:      3060.51    0.923766  ( -0.746776  -0.585989  -0.150694)
  37:      3109.91    0.514755  ( -0.127450  -0.591793  -0.385087)
  38:      3141.57    3.488721  ( -0.275595  -0.356787   1.812587)
  39:      3147.92    4.597370  ( -0.430954   2.092394   0.183125)
  40:      3180.07    0.208950  ( -0.012114   0.313837  -0.332129)
  41:      3320.00  116.144437  ( -1.595752  -0.405709  10.650512)
  42:      3477.48  110.830364  (  7.693920   3.107850  -6.478829)
  43:      3531.20  105.185468  (  4.007676  -9.142030  -2.355268)
  44:      3860.76  109.379398  ( -3.927196   2.292066   9.418225)

The first frequency considered to be a vibration is 6
The total number of vibrations considered is 39


--------------------------
THERMOCHEMISTRY AT 298.15K
--------------------------

Temperature         ... 298.15 K
Pressure            ... 1.00 atm
Total Mass          ... 76.12 AMU

Throughout the following assumptions are being made:
  (1) The electronic state is orbitally nondegenerate
  (2) There are no thermally accessible electronically excited states
  (3) Hindered rotations indicated by low frequency modes) are not
      treated as such but are treated as vibrations and this may
      case some error
  (4) All equations used are the standard statistical mechanics
      equations for an ideal gas
  (5) All vibrations are strinctly harmonic


------------
INNER ENERGY
------------

The inner energy is: U= E(el) + E(ZPE) + E(vib) + E(rot) + E(trans)
    E(el)   - is the total energy from the electronic structure calculation
              = E(kin-el) + E(nuc-el) + E(el-el) + E(nuc-nuc)
    E(ZPE)  - the the zero temperature vibrational energy from the frequency calculation
    E(vib)  - the the finite temperature correction to E(ZPE) due to population
              of excietd vibrational states
    E(rot)  - is the rotational thermal energy
    E(trans)- is the translational thermal energy

Summary of contributions to the inner energy U:
Electronic energy                ...   -249.88612433 Eh
Zero point energy                ...      0.14117673 Eh      88.59 kcal/mol
Thermal vibrational correction   ...      0.00377237 Eh       2.37 kcal/mol
Thermal rotational correction    ...      0.00141627 Eh       0.89 kcal/mol
Thermal translational correction ...      0.00141627 Eh       0.89 kcal/mol
-----------------------------------------------------------------------
Total thermal energy                   -249.73834269 Eh


Summary of corrections to the electronic energy:
(perhaps to be used in another calculation)
Total thermal correction                  0.00660492 Eh       4.14 kcal/mol
Non-thermal (ZPE) correction              0.14117673 Eh      88.59 kcal/mol
-----------------------------------------------------------------------
Total correction                          0.14778164 Eh      92.73 kcal/mol


--------
ENTHALPY
--------

The enthalpy is H = U + kB*T
                kB is Boltzmann's constant
Total free energy                 ...   -249.73834269 Eh 
Thermal Enthalpy correction       ...      0.00094421 Eh       0.59 kcal/mol
-----------------------------------------------------------------------
Total Enthalpy                    ...   -249.73739848 Eh


-------
ENTROPY
-------

The entropy contributions are T*S = T*(S(el)+S(vib)+S(rot)+S(trans)
     S(el)   - electronic entropy
     S(vib)  - vibrational entropy
     S(rot)  - rotational entropy
     S(trans)- translational entropy
The entropies will be listed as mutliplied by the temperature to get
units of energy

Electronic entropy                ...      0.00000000 Eh      0.00 kcal/mol
Vibrational entropy               ...      0.00616202 Eh      3.87 kcal/mol
Rotational entropy                ...      0.01120250 Eh      7.03 kcal/mol
Translational entropy             ...      0.01848478 Eh     11.60 kcal/mol
-----------------------------------------------------------------------
Final entropy term                ...      0.03584931 Eh     22.50 kcal/mol


CAUTION: The rotational entropy is not quite correctly treated here
         because it includes a symmetry number that is not yet correctly
         implemented in ORCA!
For a nonlinear molecule the correct rotational entropy is:
    S(rot) = R*(ln(qrot/sn)+1.5)
    R    = 8.31441 J/mol/K = 1.987191683e-3 kcal/mol/K
    qrot = 95167.5466531
    sn is the rotational symmetry number. We have assumed 3 here
       if it is different for your molecule then you should correct
       the printed rotational entropy by manually evaluating the equation
       as given above

For convenience we print out the resulting values for sn=1 - 12:
 sn= 1  qrot/sn=   95167.5467 T*S(rot)=     7.68 kcal/mol T*S(tot)=    23.15 kcal/mol
 sn= 2  qrot/sn=   47583.7733 T*S(rot)=     7.27 kcal/mol T*S(tot)=    22.74 kcal/mol
 sn= 3  qrot/sn=   31722.5156 T*S(rot)=     7.03 kcal/mol T*S(tot)=    22.50 kcal/mol
 sn= 4  qrot/sn=   23791.8867 T*S(rot)=     6.86 kcal/mol T*S(tot)=    22.33 kcal/mol
 sn= 5  qrot/sn=   19033.5093 T*S(rot)=     6.73 kcal/mol T*S(tot)=    22.19 kcal/mol
 sn= 6  qrot/sn=   15861.2578 T*S(rot)=     6.62 kcal/mol T*S(tot)=    22.09 kcal/mol
 sn= 7  qrot/sn=   13595.3638 T*S(rot)=     6.53 kcal/mol T*S(tot)=    21.99 kcal/mol
 sn= 8  qrot/sn=   11895.9433 T*S(rot)=     6.45 kcal/mol T*S(tot)=    21.91 kcal/mol
 sn= 9  qrot/sn=   10574.1719 T*S(rot)=     6.38 kcal/mol T*S(tot)=    21.84 kcal/mol
 sn=10  qrot/sn=    9516.7547 T*S(rot)=     6.32 kcal/mol T*S(tot)=    21.78 kcal/mol
 sn=11  qrot/sn=    8651.5952 T*S(rot)=     6.26 kcal/mol T*S(tot)=    21.73 kcal/mol
 sn=12  qrot/sn=    7930.6289 T*S(rot)=     6.21 kcal/mol T*S(tot)=    21.67 kcal/mol


-------------------
GIBBS FREE ENTHALPY
-------------------

The Gibbs free enthalpy is G = H - T*S

Total enthalpy                    ...   -249.73739848 Eh 
Total entropy correction          ...     -0.03584931 Eh    -22.50 kcal/mol
-----------------------------------------------------------------------
Final Gibbs free enthalpy         ...   -249.77324778 Eh

For completeness - the Gibbs free enthalpy minus the electronic energy
G-E(el)                           ...      0.11287655 Eh     70.83 kcal/mol


Timings for individual modules:

Sum of individual times         ...      752.221 sec (=  12.537 min)
GTO integral calculation        ...        6.652 sec (=   0.111 min)   0.9 %
SCF iterations                  ...       73.238 sec (=   1.221 min)   9.7 %
SCF Gradient evaluation         ...       46.185 sec (=   0.770 min)   6.1 %
Geometry relaxation             ...        0.184 sec (=   0.003 min)   0.0 %
Analytical frequency calculation...      625.962 sec (=  10.433 min)  83.2 %
                             ****ORCA TERMINATED NORMALLY****
TOTAL RUN TIME: 0 days 0 hours 12 minutes 33 seconds 759 msec
