
                                 *****************
                                 * O   R   C   A *
                                 *****************

           --- An Ab Initio, DFT and Semiempirical electronic structure package ---

                  #######################################################
                  #                        -***-                        #
                  #  Department of molecular theory and spectroscopy    #
                  #              Directorship: Frank Neese              #
                  # Max Planck Institute for Chemical Energy Conversion #
                  #                  D-45470 Muelheim/Ruhr              #
                  #                       Germany                       #
                  #                                                     #
                  #                  All rights reserved                #
                  #                        -***-                        #
                  #######################################################


                         Program Version 3.0.3 - RELEASE   -


 With contributions from (in alphabetic order):
   Ute Becker             : Parallelization
   Dmytro Bykov           : SCF Hessian
   Dmitry Ganyushin       : Spin-Orbit,Spin-Spin,Magnetic field MRCI
   Andreas Hansen         : Spin unrestricted coupled pair/coupled cluster methods
   Dimitrios Liakos       : Extrapolation schemes; parallel MDCI
   Robert Izsak           : Overlap fitted RIJCOSX, COSX-SCS-MP3
   Christian Kollmar      : KDIIS, OOCD, Brueckner-CCSD(T), CCSD density
   Simone Kossmann        : Meta GGA functionals, TD-DFT gradient, OOMP2, MP2 Hessian
   Taras Petrenko         : DFT Hessian,TD-DFT gradient, ASA and ECA modules, normal mode analysis, Resonance Raman, ABS, FL, XAS/XES, NRVS
   Christoph Reimann      : Effective Core Potentials
   Michael Roemelt        : Restricted open shell CIS
   Christoph Riplinger    : Improved optimizer, TS searches, QM/MM, DLPNO-CCSD
   Barbara Sandhoefer     : DKH picture change effects
   Igor Schapiro          : Molecular dynamics
   Kantharuban Sivalingam : CASSCF convergence, NEVPT2
   Boris Wezisla          : Elementary symmetry handling
   Frank Wennmohs         : Technical directorship


 We gratefully acknowledge several colleagues who have allowed us to
 interface, adapt or use parts of their codes:
   Stefan Grimme, W. Hujo, H. Kruse, T. Risthaus : VdW corrections, initial TS optimization,
                                                   DFT functionals, gCP
   Ed Valeev                                     : LibInt (2-el integral package), F12 methods
   Garnet Chan, S. Sharma, R. Olivares           : DMRG
   Ulf Ekstrom                                   : XCFun DFT Library
   Mihaly Kallay                                 : mrcc  (arbitrary order and MRCC methods)
   Andreas Klamt, Michael Diedenhofen            : otool_cosmo (COSMO solvation model)
   Frank Weinhold                                : gennbo (NPA and NBO analysis)
   Christopher J. Cramer and Donald G. Truhlar   : smd solvation model


 Your calculation uses the libint2 library for the computation of 2-el integrals
 For citations please refer to: http://libint.valeyev.net

 This ORCA versions uses:
   CBLAS   interface :  Fast vector & matrix operations
   LAPACKE interface :  Fast linear algebra routines
   SCALAPACK package :  Parallel linear algebra routines


Your calculation utilizes the basis: Ahlrichs-TZV
Cite in your paper:
H - Kr: A. Schaefer, H. Horn and R. Ahlrichs, J. Chem. Phys. 97, 2571 (1992).

The def2-TZV basis will be loaded
Cite in your paper:
 	F. Weigend, R. Ahlrichs, Phys. Chem. Chem. Phys. 2005, 7, 3297.

================================================================================
                                        WARNINGS
                       Please study these warnings very carefully!
================================================================================
Now building the actual basis set
WARNING: Geometry optimizations can change the point-group symmetry!

WARNING: Geometry Optimization
  ===> : Switching off AutoStart
         For restart on a previous wavefunction, please use MOREAD


INFO   : the flag for use of LIBINT has been found!

================================================================================
                                       INPUT FILE
================================================================================
NAME = 0323_+.inp
|  1> ! NORI PBE0 def2-TZVP UseSym TightOPT Freq TightSCF Grid3 FinalGrid5 XYZFile
|  2> % pal
|  3>     nprocs 8
|  4> end
|  5> %method
|  6>     SymThresh 5.0e-2
|  7> end
|  8> % geom 
|  9>     MaxIter 10
| 10> end 
| 11> % maxcore 2000
| 12> % output
| 13>     printlevel mini
| 14>     print[ P_Basis ] 0
| 15>     print[ P_SCFInfo ] 1
| 16>     print[ P_SCFIterInfo ] 1
| 17>     print[ P_OrbEn ] 0
| 18>     print[ P_Cartesian ] 0
| 19> end
| 20> % elprop
| 21>     Dipole false
| 22> end
| 23> *xyz 1 1
| 24>  C        0.2925277941     0.8502309304    -0.1589716147 
| 25>  C       -0.7026443878    -0.2470668960     0.0581658737 
| 26>  C        0.7463787387    -0.5783740165    -0.1036258886 
| 27>  C        1.5491725456    -1.1429236995     1.0098729810 
| 28>  C        2.8871289524    -0.6289147990     1.3508863244 
| 29>  N        1.7382468011    -0.3044996860     2.2300205361 
| 30>  H        0.3297354226     1.3422442594    -1.1219989064 
| 31>  H        0.4828234126     1.5309093139     0.6661541045 
| 32>  H       -1.3733230020    -0.5087993080    -0.7490631689 
| 33>  H       -1.1410444844    -0.3361371876     1.0457770572 
| 34>  H        1.0410006877    -1.0214787379    -1.0497231549 
| 35>  H        1.3500180338    -2.1768823196     1.2757979402 
| 36>  H        3.2667332169     0.2275908040     0.8082596333 
| 37>  H        3.6224342404    -1.2796777925     1.8062599716 
| 38>  H        1.6844944961    -0.7451962348     3.1413394287 
| 39>  H        1.3844575323     0.6460953699     2.2006588828 
| 40> *
| 41> 
| 42>                          ****END OF INPUT****
================================================================================

The point group is C1 - hence turning off symmetry
If this is a round-off problem, please increase the symmetry
        detection tolerance (%method SymThresh)


                       *****************************
                       * Geometry Optimization Run *
                       *****************************

Geometry optimization settings:
Update method            Update   .... BFGS
Choice of coordinates    CoordSys .... Redundant Internals
Initial Hessian          InHess   .... Almoef's Model

Convergence Tolerances:
Energy Change            TolE     ....  1.0000e-06 Eh
Max. Gradient            TolMAXG  ....  1.0000e-04 Eh/bohr
RMS Gradient             TolRMSG  ....  3.0000e-05 Eh/bohr
Max. Displacement        TolMAXD  ....  1.0000e-03 bohr
RMS Displacement         TolRMSD  ....  6.0000e-04 bohr

------------------------------------------------------------------------------
                        ORCA OPTIMIZATION COORDINATE SETUP
------------------------------------------------------------------------------

The optimization will be done in new redundant internal coordinates
Making redundant internal coordinates   ...  (new redundants) done
Evaluating the initial hessian          ...  (Almloef) done
Evaluating the coordinates              ...  done
Calculating the B-matrix                .... done
Calculating the G-matrix                .... done
Diagonalizing the G-matrix              .... done
The first mode is                       ....   68
The number of degrees of freedom        ....   42

    -----------------------------------------------------------------
                    Redundant Internal Coordinates


    -----------------------------------------------------------------
         Definition                    Initial Value    Approx d2E/dq
    -----------------------------------------------------------------
      1. B(C   1,C   0)                  1.4972         0.421428   
      2. B(C   2,C   1)                  1.4952         0.424528   
      3. B(C   2,C   0)                  1.5000         0.417123   
      4. B(C   3,C   2)                  1.4843         0.441904   
      5. B(C   4,C   3)                  1.4733         0.460080   
      6. B(N   5,C   4)                  1.4826         0.398259   
      7. B(N   5,C   3)                  1.4925         0.384054   
      8. B(H   6,C   0)                  1.0821         0.370740   
      9. B(H   7,C   0)                  1.0864         0.364830   
     10. B(H   8,C   1)                  1.0816         0.371339   
     11. B(H   9,C   1)                  1.0842         0.367846   
     12. B(H  10,C   2)                  1.0855         0.366143   
     13. B(H  11,C   3)                  1.0860         0.365398   
     14. B(H  12,C   4)                  1.0827         0.369947   
     15. B(H  13,C   4)                  1.0824         0.370332   
     16. B(H  14,N   5)                  1.0137         0.426853   
     17. B(H  15,N   5)                  1.0147         0.425267   
     18. A(C   1,C   0,C   2)           59.8502         0.378064   
     19. A(C   2,C   0,H   7)          121.0432         0.330979   
     20. A(C   2,C   0,H   6)          117.0966         0.331861   
     21. A(H   6,C   0,H   7)          112.6450         0.292775   
     22. A(C   1,C   0,H   7)          117.7397         0.331542   
     23. A(C   1,C   0,H   6)          119.0241         0.332426   
     24. A(C   0,C   1,H   9)          117.4573         0.331995   
     25. A(H   8,C   1,H   9)          114.1554         0.293230   
     26. A(C   2,C   1,H   8)          117.8099         0.332919   
     27. A(C   0,C   1,C   2)           60.1677         0.379217   
     28. A(C   0,C   1,H   8)          118.7678         0.332515   
     29. A(C   2,C   1,H   9)          118.1790         0.332398   
     30. A(C   3,C   2,H  10)          110.5977         0.334360   
     31. A(C   1,C   2,H  10)          116.6032         0.332142   
     32. A(C   0,C   2,H  10)          116.0244         0.331176   
     33. A(C   1,C   2,C   3)          121.8209         0.382351   
     34. A(C   0,C   2,C   3)          123.6132         0.381185   
     35. A(C   0,C   2,C   1)           59.9821         0.378544   
     36. A(C   2,C   3,N   5)          117.9150         0.373413   
     37. A(C   2,C   3,C   4)          122.1489         0.387739   
     38. A(C   4,C   3,H  11)          116.2324         0.336495   
     39. A(C   2,C   3,H  11)          116.5276         0.334247   
     40. A(N   5,C   3,H  11)          110.9705         0.324626   
     41. A(C   4,C   3,N   5)           59.9823         0.376020   
     42. A(N   5,C   4,H  13)          114.1122         0.327293   
     43. A(C   3,C   4,H  13)          120.3019         0.337247   
     44. A(N   5,C   4,H  12)          113.3155         0.327237   
     45. A(C   3,C   4,H  12)          118.5816         0.337189   
     46. A(C   3,C   4,N   5)           60.6504         0.378389   
     47. A(H  12,C   4,H  13)          116.6358         0.293368   
     48. A(C   3,N   5,C   4)           59.3673         0.364511   
     49. A(H  14,N   5,H  15)          114.5060         0.301761   
     50. A(C   4,N   5,H  15)          117.2589         0.332006   
     51. A(C   3,N   5,H  15)          117.2866         0.330017   
     52. A(C   4,N   5,H  14)          118.6230         0.332211   
     53. A(C   3,N   5,H  14)          118.9484         0.330220   
     54. D(C   2,C   1,C   0,H   6)    106.2674         0.014050   
     55. D(H   8,C   1,C   0,H   7)    141.0077         0.014050   
     56. D(H   9,C   1,C   0,H   7)     -3.2229         0.014050   
     57. D(H   8,C   1,C   0,H   6)     -1.1116         0.014050   
     58. D(H   9,C   1,C   0,C   2)    108.3904         0.014050   
     59. D(H   8,C   1,C   0,C   2)   -107.3790         0.014050   
     60. D(H   9,C   1,C   0,H   6)   -145.3422         0.014050   
     61. D(C   2,C   1,C   0,H   7)   -111.6133         0.014050   
     62. D(C   3,C   2,C   0,C   1)   -110.3129         0.013770   
     63. D(H  10,C   2,C   1,H   9)    146.6934         0.014253   
     64. D(C   1,C   2,C   0,H   7)    106.1799         0.013770   
     65. D(H  10,C   2,C   0,C   1)    107.0636         0.013770   
     66. D(C   3,C   2,C   0,H   6)    140.2317         0.013770   
     67. D(H  10,C   2,C   1,C   0)   -106.1024         0.014253   
     68. D(C   3,C   2,C   1,H   9)      5.9936         0.014253   
     69. D(C   3,C   2,C   0,H   7)     -4.1330         0.013770   
     70. D(C   3,C   2,C   1,H   8)   -137.8520         0.014253   
     71. D(C   1,C   2,C   0,H   6)   -109.4555         0.013770   
     72. D(C   0,C   2,C   1,H   9)   -107.2042         0.014253   
     73. D(C   0,C   2,C   1,H   8)    108.9502         0.014253   
     74. D(C   3,C   2,C   1,C   0)    113.1978         0.014253   
     75. D(H  10,C   2,C   1,H   8)      2.8478         0.014253   
     76. D(H  10,C   2,C   0,H   7)   -146.7565         0.013770   
     77. D(H  10,C   2,C   0,H   6)     -2.3919         0.013770   
     78. D(N   5,C   3,C   2,H  10)    153.8992         0.015428   
     79. D(N   5,C   3,C   2,C   1)    -63.3298         0.015428   
     80. D(N   5,C   3,C   2,C   0)      9.5435         0.015428   
     81. D(C   4,C   3,C   2,C   0)    -60.8419         0.015428   
     82. D(C   4,C   3,C   2,H  10)     83.5137         0.015428   
     83. D(H  11,C   3,C   2,C   0)    145.3625         0.015428   
     84. D(H  11,C   3,C   2,H  10)    -70.2818         0.015428   
     85. D(H  11,C   3,C   2,C   1)     72.4892         0.015428   
     86. D(C   4,C   3,C   2,C   1)   -133.7153         0.015428   
     87. D(H  13,C   4,C   3,H  11)      2.2288         0.016721   
     88. D(H  13,C   4,C   3,N   5)    102.3705         0.016721   
     89. D(H  13,C   4,C   3,C   2)   -151.6387         0.016721   
     90. D(H  12,C   4,C   3,H  11)    157.6926         0.016721   
     91. D(H  12,C   4,C   3,N   5)   -102.1658         0.016721   
     92. D(H  12,C   4,C   3,C   2)      3.8250         0.016721   
     93. D(N   5,C   4,C   3,H  11)   -100.1416         0.016721   
     94. D(N   5,C   4,C   3,C   2)    105.9909         0.016721   
     95. D(H  15,N   5,C   4,H  13)    140.3981         0.014497   
     96. D(H  15,N   5,C   4,H  12)      3.7001         0.014497   
     97. D(H  14,N   5,C   4,H  13)     -3.9674         0.014497   
     98. D(H  14,N   5,C   4,H  12)   -140.6654         0.014497   
     99. D(H  14,N   5,C   4,C   3)    108.5219         0.014497   
    100. D(C   3,N   5,C   4,H  13)   -112.4893         0.014497   
    101. D(C   3,N   5,C   4,H  12)    110.8127         0.014497   
    102. D(H  15,N   5,C   3,H  11)   -143.9530         0.013500   
    103. D(H  15,N   5,C   3,C   4)    107.0660         0.013500   
    104. D(H  15,N   5,C   3,C   2)     -5.8493         0.013500   
    105. D(H  14,N   5,C   3,H  11)      1.0012         0.013500   
    106. D(H  14,N   5,C   3,C   4)   -107.9797         0.013500   
    107. D(H  15,N   5,C   4,C   3)   -107.1126         0.014497   
    108. D(H  14,N   5,C   3,C   2)    139.1049         0.013500   
    109. D(C   4,N   5,C   3,H  11)    108.9809         0.013500   
    110. D(C   4,N   5,C   3,C   2)   -112.9154         0.013500   
    -----------------------------------------------------------------

Number of atoms                         .... 16
Number of degrees of freedom            .... 110

         *************************************************************
         *                GEOMETRY OPTIMIZATION CYCLE   1            *
         *************************************************************


           ************************************************************
           *        Program running with 8 parallel MPI-processes     *
           *              working on a common directory               *
           ************************************************************
           ************************************************************
           *              Shut down parallel processing               *
           ************************************************************


           ************************************************************
           *        Program running with 8 parallel MPI-processes     *
           *              working on a common directory               *
           ************************************************************
------------
SCF SETTINGS
------------
Hamiltonian:
 Density Functional     Method          .... DFT(GTOs)
 Exchange Functional    Exchange        .... PBE
   PBE kappa parameter  XKappa          ....  0.804000
 Correlation Functional Correlation     .... PBE
 LDA part of GGA corr.  LDAOpt          .... PW91-LDA
 Gradients option       PostSCFGGA      .... off
 Hybrid DFT is turned on
   Fraction HF Exchange ScalHFX         ....  0.250000
   Scaling of DF-GGA-X  ScalDFX         ....  0.750000
   Scaling of DF-GGA-C  ScalDFC         ....  1.000000
   Scaling of DF-LDA-C  ScalLDAC        ....  1.000000
   Perturbative correction              ....  0.000000
   NL short-range parameter             ....  6.900000


General Settings:
 Integral files         IntName         .... 0323_+
 Hartree-Fock type      HFTyp           .... RHF
 Total Charge           Charge          ....    1
 Multiplicity           Mult            ....    1
 Number of Electrons    NEL             ....   46
 Basis Dimension        Dim             ....  246
 Nuclear Repulsion      ENuc            ....    247.2419758454 Eh

Convergence Acceleration:
 DIIS                   CNVDIIS         .... on
   Start iteration      DIISMaxIt       ....    12
   Startup error        DIISStart       ....  0.200000
   # of expansion vecs  DIISMaxEq       ....     5
   Bias factor          DIISBfac        ....   1.050
   Max. coefficient     DIISMaxC        ....  10.000
 Newton-Raphson         CNVNR           .... off
 SOSCF                  CNVSOSCF        .... on
   Start iteration      SOSCFMaxIt      ....   150
   Startup grad/error   SOSCFStart      ....  0.003300
 Level Shifting         CNVShift        .... on
   Level shift para.    LevelShift      ....    0.2500
   Turn off err/grad.   ShiftErr        ....    0.0010
 Zerner damping         CNVZerner       .... off
 Static damping         CNVDamp         .... on
   Fraction old density DampFac         ....    0.7000
   Max. Damping (<1)    DampMax         ....    0.9800
   Min. Damping (>=0)   DampMin         ....    0.0000
   Turn off err/grad.   DampErr         ....    0.1000
 Fernandez-Rico         CNVRico         .... off

SCF Procedure:
 Maximum # iterations   MaxIter         ....   125
 SCF integral mode      SCFMode         .... Direct
   Integral package                     .... LIBINT
 Reset frequeny         DirectResetFreq ....    20
 Integral Threshold     Thresh          ....  2.500e-11 Eh
 Primitive CutOff       TCut            ....  2.500e-12 Eh

Convergence Tolerance:
 Convergence Check Mode ConvCheckMode   .... Total+1el-Energy
 Energy Change          TolE            ....  1.000e-08 Eh
 1-El. energy change                    ....  1.000e-05 Eh
 Orbital Gradient       TolG            ....  1.000e-05
 Orbital Rotation angle TolX            ....  1.000e-05
 DIIS Error             TolErr          ....  5.000e-07


Diagonalization of the overlap matrix:
Smallest eigenvalue                        ... 1.180e-04
Time for diagonalization                   ...    0.020 sec
Threshold for overlap eigenvalues          ... 1.000e-08
Number of eigenvalues below threshold      ... 0
Time for construction of square roots      ...    0.007 sec
Total time needed                          ...    0.028 sec

-------------------
DFT GRID GENERATION
-------------------

General Integration Accuracy     IntAcc      ...  4.340
Radial Grid Type                 RadialGrid  ... Gauss-Chebyshev
Angular Grid (max. acc.)         AngularGrid ... Lebedev-194
Angular grid pruning method      GridPruning ... 3 (G Style)
Weight generation scheme         WeightScheme... Becke
Basis function cutoff            BFCut       ...    1.0000e-11
Integration weight cutoff        WCut        ...    1.0000e-14
Grids for H and He will be reduced by one unit

# of grid points (after initial pruning)     ...  35004 (   0.0 sec)
# of grid points (after weights+screening)   ...  32080 (   0.0 sec)
nearest neighbour list constructed           ...    0.0 sec
Grid point re-assignment to atoms done       ...    0.0 sec
Grid point division into batches done        ...    0.1 sec
Reduced shell lists constructed in    0.1 sec

Total number of grid points                  ...    32080
Total number of batches                      ...      510
Average number of points per batch           ...       62
Average number of grid points per atom       ...     2005
Average number of shells per batch           ...    86.75 (81.84%)
Average number of basis functions per batch  ...   208.60 (84.80%)
Average number of large shells per batch     ...    72.65 (83.74%)
Average number of large basis fcns per batch ...   174.68 (83.74%)
Maximum spatial batch extension              ...   4.34,  2.33,  2.43 au
Average spatial batch extension              ...   0.17,  0.15,  0.15 au

Time for grid setup =    0.158 sec

Loading Hartree-Fock densities                     ... done
Calculating cut-offs                               ... done
Setting up the integral package                    ... done
Initializing the effective Hamiltonian             ... done
Starting the Coulomb interaction                   ... done (   0.0 sec)
Reading the grid                                   ... done
Mapping shells                                     ... done
Starting the XC term evaluation                    ... done (   0.2 sec)
  promolecular density results
     # of electrons  =     46.994727911
     EX              =    -35.146268461
     EC              =     -1.548653879
     EX+EC           =    -36.694922341
Transforming the Hamiltonian                       ... done (   0.0 sec)
Diagonalizing the Hamiltonian                      ... done (   0.0 sec)
Back transforming the eigenvectors                 ... done (   0.0 sec)
Now organizing SCF variables                       ... done
--------------
SCF ITERATIONS
--------------
ITER       Energy         Delta-E        Max-DP      RMS-DP      [F,P]     Damp
               ***  Starting incremental Fock matrix formation  ***
  0   -250.6631592088   0.000000000000 0.02791481  0.00078542  0.1517480 0.7000
  1   -250.7171076381  -0.053948429281 0.01867462  0.00060283  0.0815098 0.7000
                               ***Turning on DIIS***
  2   -250.7410396209  -0.023931982738 0.02970767  0.00114552  0.0330422 0.0000
  3   -250.7763243815  -0.035284760651 0.01312527  0.00037782  0.0436035 0.0000
  4   -250.7847779378  -0.008453556321 0.00536491  0.00014120  0.0065328 0.0000
                      *** Initiating the SOSCF procedure ***
                           *** Shutting down DIIS ***
                      *** Re-Reading the Fockian *** 
                      *** Removing any level shift *** 
ITER      Energy       Delta-E        Grad      Rot      Max-DP    RMS-DP
  5   -250.78507189  -0.0002939526  0.000403  0.000403  0.002573  0.000051
               *** Restarting incremental Fock matrix formation ***
  6   -250.78508761  -0.0000157167  0.000176  0.000552  0.001779  0.000034
  7   -250.78508835  -0.0000007477  0.000250  0.000234  0.000342  0.000008
  8   -250.78508955  -0.0000011917  0.000035  0.000060  0.000209  0.000004
  9   -250.78508956  -0.0000000152  0.000033  0.000023  0.000029  0.000001
 10   -250.78508959  -0.0000000324  0.000003  0.000010  0.000031  0.000001
                  ***Gradient check signals convergence***
              ***Rediagonalizing the Fockian in SOSCF/NRSCF***

               *****************************************************
               *                     SUCCESS                       *
               *           SCF CONVERGED AFTER  11 CYCLES          *
               *****************************************************

Setting up the final grid:

General Integration Accuracy     IntAcc      ...  5.010
Radial Grid Type                 RadialGrid  ... Gauss-Chebyshev
Angular Grid (max. acc.)         AngularGrid ... Lebedev-434
Angular grid pruning method      GridPruning ... 3 (G Style)
Weight generation scheme         WeightScheme... Becke
Basis function cutoff            BFCut       ...    1.0000e-11
Integration weight cutoff        WCut        ...    1.0000e-14
Grids for H and He will be reduced by one unit

# of grid points (after initial pruning)     ... 131000 (   0.0 sec)
# of grid points (after weights+screening)   ... 118707 (   0.1 sec)
nearest neighbour list constructed           ...    0.0 sec
Grid point re-assignment to atoms done       ...    0.0 sec
Grid point division into batches done        ...    0.8 sec
Reduced shell lists constructed in    1.0 sec

Total number of grid points                  ...   118707
Total number of batches                      ...     1862
Average number of points per batch           ...       63
Average number of grid points per atom       ...     7419
Average number of shells per batch           ...    86.35 (81.46%)
Average number of basis functions per batch  ...   207.29 (84.26%)
Average number of large shells per batch     ...    72.07 (83.47%)
Average number of large basis fcns per batch ...   173.93 (83.91%)
Maximum spatial batch extension              ...   2.68,  2.16,  1.94 au
Average spatial batch extension              ...   0.10,  0.10,  0.10 au

Final grid set up in    1.2 sec
Final integration                            ... done (   0.6 sec)
Change in XC energy                          ...     0.000376439
Integrated number of electrons               ...    45.999990351
Previous integrated no of electrons          ...    45.999959662
Total Energy       :         -250.78471316 Eh           -6824.19898 eV
  Last Energy change         ...   -8.5635e-10  Tolerance :   1.0000e-08
  Last MAX-Density change    ...    6.3552e-06  Tolerance :   1.0000e-07
             **** THE GBW FILE WAS UPDATED (0323_+.gbw) ****
             **** DENSITY FILE WAS UPDATED (0323_+.scfp.tmp) ****
             **** ENERGY FILE WAS UPDATED (0323_+.en.tmp) ****
Total SCF time: 0 days 0 hours 0 min 48 sec 
           ************************************************************
           *              Shut down parallel processing               *
           ************************************************************

-------------------------   --------------------
FINAL SINGLE POINT ENERGY      -250.784713155498
-------------------------   --------------------



           ************************************************************
           *        Program running with 8 parallel MPI-processes     *
           *              working on a common directory               *
           ************************************************************
------------------------------------------------------------------------------
                         ORCA SCF GRADIENT CALCULATION
------------------------------------------------------------------------------

Gradient of the Kohn-Sham DFT energy:
Kohn-Sham wavefunction type      ... RKS
Hartree-Fock exchange scaling    ...    0.250
Number of operators              ...    1
Number of atoms                  ...   16
Basis set dimensions             ...  246
Integral neglect threshold       ... 2.5e-11
Integral primitive cutoff        ... 2.5e-12

Nuclear repulsion gradient       ... done
One Electron Gradient            ... done
Pre-screening matrix             ... done
Starting the two electron gradient:
Two electron gradient done
Exchange-correlation gradient    ... done

------------------
CARTESIAN GRADIENT
------------------

   1   C   :    0.000009197   -0.000239548    0.000213414
   2   C   :   -0.000315300   -0.000028551   -0.000070252
   3   C   :    0.000162858    0.000154710   -0.000020935
   4   C   :    0.000088941    0.000200808    0.000085640
   5   C   :    0.000201945   -0.000158942    0.000017552
   6   N   :    0.000127046    0.000008766   -0.000316076
   7   H   :    0.000066878   -0.000022963   -0.000088968
   8   H   :   -0.000040019   -0.000001402   -0.000002508
   9   H   :   -0.000042392    0.000038962   -0.000013014
  10   H   :    0.000050162    0.000085570    0.000029075
  11   H   :    0.000071780   -0.000004878    0.000041633
  12   H   :    0.000029506    0.000033225    0.000022840
  13   H   :   -0.000062396    0.000035067   -0.000000463
  14   H   :   -0.000129000   -0.000030064    0.000092854
  15   H   :   -0.000042013   -0.000072025   -0.000070397
  16   H   :   -0.000177192    0.000001266    0.000079605

Norm of the cartesian gradient     ...    0.000784951
RMS gradient                       ...    0.000113298
MAX gradient                       ...    0.000316076

-------
TIMINGS
-------

Total SCF gradient time            ...       23.255 sec

One electron gradient       ....       0.079 sec  (  0.3%)
Prescreening matrices       ....       0.207 sec  (  0.9%)
Two electron gradient       ....      19.974 sec  ( 85.9%)
XC gradient                 ....       2.757 sec  ( 11.9%)
           ************************************************************
           *              Shut down parallel processing               *
           ************************************************************
------------------------------------------------------------------------------
                         ORCA GEOMETRY RELAXATION STEP
------------------------------------------------------------------------------

Reading the OPT-File                    .... done
Getting information on internals        .... done
Copying old internal coords+grads       .... done
Making the new internal coordinates     .... (new redundants).... done
Validating the new internal coordinates .... (new redundants).... done
Calculating the B-matrix                .... done
Calculating the G,G- and P matrices     .... done
Transforming gradient to internals      .... done
Projecting the internal gradient        .... done
Number of atoms                         ....  16
Number of internal coordinates          .... 110
Current Energy                          ....  -250.784713155 Eh
Current gradient norm                   ....     0.000784951 Eh/bohr
Maximum allowed component of the step   ....  0.300
Current trust radius                    ....  0.300
Evaluating the initial hessian          ....  (Almloef) done
Projecting the Hessian                  .... done
Forming the augmented Hessian           .... done
Diagonalizing the augmented Hessian     .... done
Last element of RFO vector              ....  0.999982100
Lowest eigenvalues of augmented Hessian:
 -0.000001501  0.015428692  0.034890629  0.035110238  0.038011834
Length of the computed step             ....  0.005983454
The final length of the internal step   ....  0.005983454
Converting the step to cartesian space:
 Initial RMS(Int)=    0.0005705000
Transforming coordinates:
 Iter   0:  RMS(Cart)=    0.0014508216 RMS(Int)=    0.0005704652
 Iter   1:  RMS(Cart)=    0.0000007530 RMS(Int)=    0.0000004261
 Iter   2:  RMS(Cart)=    0.0000000008 RMS(Int)=    0.0000000003
done
Storing new coordinates                 .... done

                                .--------------------.
          ----------------------|Geometry convergence|---------------------
          Item                value                 Tolerance   Converged
          -----------------------------------------------------------------
          RMS gradient        0.00005330            0.00003000      NO
          MAX gradient        0.00019725            0.00010000      NO
          RMS step            0.00057050            0.00060000      YES
          MAX step            0.00206334            0.00100000      NO
          ....................................................
          Max(Bonds)      0.0003      Max(Angles)    0.02
          Max(Dihed)        0.12      Max(Improp)    0.00
          -----------------------------------------------------------------

The optimization has not yet converged - more geometry cycles are needed


    ---------------------------------------------------------------------------
                         Redundant Internal Coordinates
                            (Angstroem and degrees)

        Definition                    Value    dE/dq     Step     New-Value
    ----------------------------------------------------------------------------
     1. B(C   1,C   0)                1.4972  0.000175 -0.0003    1.4969   
     2. B(C   2,C   1)                1.4952 -0.000124  0.0002    1.4954   
     3. B(C   2,C   0)                1.5000 -0.000077  0.0001    1.5001   
     4. B(C   3,C   2)                1.4843 -0.000097  0.0001    1.4844   
     5. B(C   4,C   3)                1.4733  0.000093 -0.0001    1.4732   
     6. B(N   5,C   4)                1.4826 -0.000015  0.0000    1.4826   
     7. B(N   5,C   3)                1.4925 -0.000197  0.0003    1.4928   
     8. B(H   6,C   0)                1.0821  0.000104 -0.0001    1.0819   
     9. B(H   7,C   0)                1.0864 -0.000026  0.0000    1.0865   
    10. B(H   8,C   1)                1.0816  0.000030 -0.0000    1.0816   
    11. B(H   9,C   1)                1.0842  0.000089 -0.0001    1.0841   
    12. B(H  10,C   2)                1.0855 -0.000067  0.0001    1.0856   
    13. B(H  11,C   3)                1.0860 -0.000004  0.0000    1.0860   
    14. B(H  12,C   4)                1.0827 -0.000064  0.0001    1.0827   
    15. B(H  13,C   4)                1.0824  0.000160 -0.0002    1.0821   
    16. B(H  14,N   5)                1.0137 -0.000080  0.0001    1.0138   
    17. B(H  15,N   5)                1.0147 -0.000188  0.0002    1.0150   
    18. A(C   1,C   0,C   2)           59.85 -0.000070    0.01     59.86   
    19. A(C   2,C   0,H   7)          121.04  0.000009    0.01    121.05   
    20. A(C   2,C   0,H   6)          117.10  0.000029   -0.01    117.08   
    21. A(H   6,C   0,H   7)          112.64 -0.000016   -0.00    112.64   
    22. A(C   1,C   0,H   7)          117.74  0.000021   -0.00    117.74   
    23. A(C   1,C   0,H   6)          119.02  0.000010    0.01    119.03   
    24. A(C   0,C   1,H   9)          117.46 -0.000003    0.01    117.46   
    25. A(H   8,C   1,H   9)          114.16 -0.000032    0.01    114.16   
    26. A(C   2,C   1,H   8)          117.81  0.000020    0.00    117.81   
    27. A(C   0,C   1,C   2)           60.17 -0.000042    0.01     60.18   
    28. A(C   0,C   1,H   8)          118.77  0.000042   -0.01    118.75   
    29. A(C   2,C   1,H   9)          118.18  0.000020   -0.01    118.17   
    30. A(C   3,C   2,H  10)          110.60  0.000056   -0.00    110.60   
    31. A(C   1,C   2,H  10)          116.60 -0.000030    0.01    116.61   
    32. A(C   0,C   2,H  10)          116.02 -0.000016    0.00    116.03   
    33. A(C   1,C   2,C   3)          121.82 -0.000044   -0.01    121.81   
    34. A(C   0,C   2,C   3)          123.61 -0.000074    0.02    123.63   
    35. A(C   0,C   2,C   1)           59.98  0.000113   -0.02     59.96   
    36. A(C   2,C   3,N   5)          117.92 -0.000026    0.01    117.92   
    37. A(C   2,C   3,C   4)          122.15 -0.000017    0.01    122.15   
    38. A(C   4,C   3,H  11)          116.23 -0.000007   -0.00    116.23   
    39. A(C   2,C   3,H  11)          116.53  0.000026   -0.01    116.52   
    40. A(N   5,C   3,H  11)          110.97 -0.000003   -0.00    110.97   
    41. A(C   4,C   3,N   5)           59.98  0.000016   -0.00     59.98   
    42. A(N   5,C   4,H  13)          114.11  0.000032   -0.00    114.11   
    43. A(C   3,C   4,H  13)          120.30 -0.000004    0.01    120.31   
    44. A(N   5,C   4,H  12)          113.32  0.000038   -0.01    113.30   
    45. A(C   3,C   4,H  12)          118.58  0.000031    0.00    118.58   
    46. A(C   3,C   4,N   5)           60.65 -0.000098    0.02     60.67   
    47. A(H  12,C   4,H  13)          116.64 -0.000020   -0.00    116.63   
    48. A(C   3,N   5,C   4)           59.37  0.000082   -0.01     59.35   
    49. A(H  14,N   5,H  15)          114.51  0.000029   -0.00    114.50   
    50. A(C   4,N   5,H  15)          117.26 -0.000002   -0.00    117.26   
    51. A(C   3,N   5,H  15)          117.29  0.000015   -0.01    117.27   
    52. A(C   4,N   5,H  14)          118.62 -0.000054    0.02    118.64   
    53. A(C   3,N   5,H  14)          118.95 -0.000056    0.01    118.96   
    54. D(C   2,C   1,C   0,H   6)    106.27  0.000003   -0.01    106.25   
    55. D(H   8,C   1,C   0,H   7)    141.01  0.000032   -0.03    140.98   
    56. D(H   9,C   1,C   0,H   7)     -3.22  0.000032   -0.03     -3.25   
    57. D(H   8,C   1,C   0,H   6)     -1.11  0.000013   -0.03     -1.14   
    58. D(H   9,C   1,C   0,C   2)    108.39  0.000010   -0.02    108.37   
    59. D(H   8,C   1,C   0,C   2)   -107.38  0.000010   -0.01   -107.39   
    60. D(H   9,C   1,C   0,H   6)   -145.34  0.000013   -0.03   -145.37   
    61. D(C   2,C   1,C   0,H   7)   -111.61  0.000022   -0.01   -111.63   
    62. D(C   3,C   2,C   0,C   1)   -110.31 -0.000028    0.03   -110.28   
    63. D(H  10,C   2,C   1,H   9)    146.69 -0.000006   -0.01    146.68   
    64. D(C   1,C   2,C   0,H   7)    106.18 -0.000010    0.00    106.18   
    65. D(H  10,C   2,C   0,C   1)    107.06  0.000009   -0.00    107.06   
    66. D(C   3,C   2,C   0,H   6)    140.23 -0.000004    0.01    140.24   
    67. D(H  10,C   2,C   1,C   0)   -106.10 -0.000035    0.01   -106.10   
    68. D(C   3,C   2,C   1,H   9)      5.99  0.000001   -0.00      5.99   
    69. D(C   3,C   2,C   0,H   7)     -4.13 -0.000038    0.03     -4.10   
    70. D(C   3,C   2,C   1,H   8)   -137.85 -0.000000    0.00   -137.85   
    71. D(C   1,C   2,C   0,H   6)   -109.46  0.000024   -0.02   -109.47   
    72. D(C   0,C   2,C   1,H   9)   -107.20  0.000029   -0.02   -107.22   
    73. D(C   0,C   2,C   1,H   8)    108.95  0.000027   -0.02    108.94   
    74. D(C   3,C   2,C   1,C   0)    113.20 -0.000028    0.02    113.21   
    75. D(H  10,C   2,C   1,H   8)      2.85 -0.000007   -0.01      2.84   
    76. D(H  10,C   2,C   0,H   7)   -146.76 -0.000001   -0.00   -146.76   
    77. D(H  10,C   2,C   0,H   6)     -2.39  0.000033   -0.02     -2.41   
    78. D(N   5,C   3,C   2,H  10)    153.90 -0.000033    0.12    154.01   
    79. D(N   5,C   3,C   2,C   1)    -63.33 -0.000067    0.11    -63.22   
    80. D(N   5,C   3,C   2,C   0)      9.54  0.000022    0.09      9.63   
    81. D(C   4,C   3,C   2,C   0)    -60.84  0.000020    0.08    -60.76   
    82. D(C   4,C   3,C   2,H  10)     83.51 -0.000035    0.11     83.63   
    83. D(H  11,C   3,C   2,C   0)    145.36  0.000018    0.09    145.45   
    84. D(H  11,C   3,C   2,H  10)    -70.28 -0.000037    0.12    -70.16   
    85. D(H  11,C   3,C   2,C   1)     72.49 -0.000071    0.11     72.60   
    86. D(C   4,C   3,C   2,C   1)   -133.72 -0.000069    0.11   -133.61   
    87. D(H  13,C   4,C   3,H  11)      2.23 -0.000012   -0.00      2.23   
    88. D(H  13,C   4,C   3,N   5)    102.37 -0.000005   -0.00    102.37   
    89. D(H  13,C   4,C   3,C   2)   -151.64 -0.000022    0.01   -151.63   
    90. D(H  12,C   4,C   3,H  11)    157.69  0.000003    0.01    157.70   
    91. D(H  12,C   4,C   3,N   5)   -102.17  0.000010    0.01   -102.16   
    92. D(H  12,C   4,C   3,C   2)      3.83 -0.000007    0.01      3.84   
    93. D(N   5,C   4,C   3,H  11)   -100.14 -0.000007    0.00   -100.14   
    94. D(N   5,C   4,C   3,C   2)    105.99 -0.000017    0.01    106.00   
    95. D(H  15,N   5,C   4,H  13)    140.40 -0.000005    0.01    140.41   
    96. D(H  15,N   5,C   4,H  12)      3.70 -0.000052    0.03      3.73   
    97. D(H  14,N   5,C   4,H  13)     -3.97  0.000029   -0.01     -3.98   
    98. D(H  14,N   5,C   4,H  12)   -140.67 -0.000018    0.01   -140.65   
    99. D(H  14,N   5,C   4,C   3)    108.52 -0.000014    0.00    108.52   
   100. D(C   3,N   5,C   4,H  13)   -112.49  0.000043   -0.01   -112.50   
   101. D(C   3,N   5,C   4,H  12)    110.81 -0.000004    0.01    110.82   
   102. D(H  15,N   5,C   3,H  11)   -143.95  0.000016   -0.00   -143.96   
   103. D(H  15,N   5,C   3,C   4)    107.07  0.000020   -0.00    107.06   
   104. D(H  15,N   5,C   3,C   2)     -5.85  0.000025   -0.00     -5.85   
   105. D(H  14,N   5,C   3,H  11)      1.00  0.000006   -0.01      0.99   
   106. D(H  14,N   5,C   3,C   4)   -107.98  0.000010   -0.01   -107.99   
   107. D(H  15,N   5,C   4,C   3)   -107.11 -0.000048    0.02   -107.09   
   108. D(H  14,N   5,C   3,C   2)    139.10  0.000015   -0.01    139.09   
   109. D(C   4,N   5,C   3,H  11)    108.98 -0.000004   -0.00    108.98   
   110. D(C   4,N   5,C   3,C   2)   -112.92  0.000005   -0.00   -112.92   
    ----------------------------------------------------------------------------

         *************************************************************
         *                GEOMETRY OPTIMIZATION CYCLE   2            *
         *************************************************************
---------------------------------
CARTESIAN COORDINATES (ANGSTROEM)
---------------------------------
  C      1.248504   -0.000549   -1.162702
  C      0.490832    1.272081   -1.379525
  C     -0.235938    0.037806   -0.949866
  C     -0.878148   -0.067614    0.384252
  C     -0.711822   -1.252994    1.242992
  N     -0.000588    0.000779    1.589890
  H      1.608842   -0.550004   -2.022247
  H      1.934356   -0.043619   -0.321155
  H      0.338426    1.620855   -2.391932
  H      0.626851    2.064941   -0.652821
  H     -0.838270   -0.459128   -1.703992
  H     -1.786963    0.508344    0.531865
  H     -0.049947   -2.043492    0.912272
  H     -1.486073   -1.530978    1.946054
  H     -0.313937    0.530173    2.395719
  H      1.002121    0.024613    1.434515

----------------------------
CARTESIAN COORDINATES (A.U.)
----------------------------
  NO LB      ZA    FRAG    MASS        X           Y           Z
   0 C     6.0000    0    12.011          2.359330492167004         -0.001036641411891         -2.197189132709789
   1 C     6.0000    0    12.011          0.927537602588478          2.403885052430371         -2.606924182942312
   2 C     6.0000    0    12.011         -0.445858912486331          0.071442411944624         -1.794985909095651
   3 C     6.0000    0    12.011         -1.659459696075908         -0.127772415550581          0.726131974240891
   4 C     6.0000    0    12.011         -1.345148874948883         -2.367814791405260          2.348915287004936
   5 N     7.0000    0    14.007         -0.001111287715730          0.001471344441388          3.004456776014503
   6 H     1.0000    0     1.008          3.040271176771920         -1.039356159085439         -3.821493003599510
   7 H     1.0000    0     1.008          3.655403851958917         -0.082428768930975         -0.606895645369347
   8 H     1.0000    0     1.008          0.639533223381786          3.062971469150328         -4.520096555455813
   9 H     1.0000    0     1.008          1.184575890664955          3.902173735175523         -1.233652485676112
  10 H     1.0000    0     1.008         -1.584099874221020         -0.867625976865463         -3.220078995238125
  11 H     1.0000    0     1.008         -3.376870296833823          0.960630897498237          1.005079794514133
  12 H     1.0000    0     1.008         -0.094386102684099         -3.861639597830382          1.723943724159545
  13 H     1.0000    0     1.008         -2.808271620933785         -2.893128510791300          3.677508528280301
  14 H     1.0000    0     1.008         -0.593255169329741          1.001882233909936          4.527253046017536
  15 H     1.0000    0     1.008          1.893734619236707          0.046512293504489          2.710841107667569

--------------------------------
INTERNAL COORDINATES (ANGSTROEM)
--------------------------------
 C      0   0   0   0.000000     0.000     0.000
 C      1   0   0   1.496885     0.000     0.000
 C      2   1   0   1.495406    60.176     0.000
 C      3   2   1   1.484391   121.811   113.213
 C      4   3   2   1.473168   122.155   226.392
 N      5   4   3   1.482611    60.666   105.998
 H      1   2   3   1.081925   119.030   106.253
 H      1   2   3   1.086485   117.737   248.373
 H      2   1   3   1.081591   118.755   252.606
 H      2   1   3   1.084079   117.464   108.375
 H      3   2   1   1.085566   116.609   253.905
 H      4   3   2   1.086030   116.522    72.602
 H      5   4   3   1.082747   118.583     3.839
 H      5   4   3   1.082144   120.307   208.368
 H      6   5   4   1.013808   118.639   108.523
 H      6   5   4   1.014956   117.256   252.908

---------------------------
INTERNAL COORDINATES (A.U.)
---------------------------
 C      0   0   0   0.000000     0.000     0.000
 C      1   0   0   2.828703     0.000     0.000
 C      2   1   0   2.825907    60.176     0.000
 C      3   2   1   2.805093   121.811   113.213
 C      4   3   2   2.783883   122.155   226.392
 N      5   4   3   2.801730    60.666   105.998
 H      1   2   3   2.044542   119.030   106.253
 H      1   2   3   2.053160   117.737   248.373
 H      2   1   3   2.043910   118.755   252.606
 H      2   1   3   2.048612   117.464   108.375
 H      3   2   1   2.051422   116.609   253.905
 H      4   3   2   2.052299   116.522    72.602
 H      5   4   3   2.046096   118.583     3.839
 H      5   4   3   2.044955   120.307   208.368
 H      6   5   4   1.915820   118.639   108.523
 H      6   5   4   1.917988   117.256   252.908



           ************************************************************
           *        Program running with 8 parallel MPI-processes     *
           *              working on a common directory               *
           ************************************************************
           ************************************************************
           *              Shut down parallel processing               *
           ************************************************************


           ************************************************************
           *        Program running with 8 parallel MPI-processes     *
           *              working on a common directory               *
           ************************************************************

Diagonalization of the overlap matrix:
Smallest eigenvalue                        ... 1.180e-04
Time for diagonalization                   ...    0.015 sec
Threshold for overlap eigenvalues          ... 1.000e-08
Number of eigenvalues below threshold      ... 0
Time for construction of square roots      ...    0.007 sec
Total time needed                          ...    0.023 sec

-------------------
DFT GRID GENERATION
-------------------

General Integration Accuracy     IntAcc      ...  4.340
Radial Grid Type                 RadialGrid  ... Gauss-Chebyshev
Angular Grid (max. acc.)         AngularGrid ... Lebedev-194
Angular grid pruning method      GridPruning ... 3 (G Style)
Weight generation scheme         WeightScheme... Becke
Basis function cutoff            BFCut       ...    1.0000e-11
Integration weight cutoff        WCut        ...    1.0000e-14
Grids for H and He will be reduced by one unit

# of grid points (after initial pruning)     ...  35004 (   0.0 sec)
# of grid points (after weights+screening)   ...  32081 (   0.0 sec)
nearest neighbour list constructed           ...    0.0 sec
Grid point re-assignment to atoms done       ...    0.0 sec
Grid point division into batches done        ...    0.1 sec
Reduced shell lists constructed in    0.1 sec

Total number of grid points                  ...    32081
Total number of batches                      ...      510
Average number of points per batch           ...       62
Average number of grid points per atom       ...     2005
Average number of shells per batch           ...    86.75 (81.84%)
Average number of basis functions per batch  ...   208.57 (84.78%)
Average number of large shells per batch     ...    72.69 (83.79%)
Average number of large basis fcns per batch ...   174.91 (83.86%)
Maximum spatial batch extension              ...   4.34,  2.00,  2.43 au
Average spatial batch extension              ...   0.17,  0.15,  0.15 au

Time for grid setup =    0.161 sec

--------------
SCF ITERATIONS
--------------
ITER       Energy         Delta-E        Max-DP      RMS-DP      [F,P]     Damp
               ***  Starting incremental Fock matrix formation  ***
                      *** Initiating the SOSCF procedure ***
                      *** Re-Reading the Fockian *** 
                      *** Removing any level shift *** 
ITER      Energy       Delta-E        Grad      Rot      Max-DP    RMS-DP
  0   -250.78508841 -250.7850884068  0.000091  0.000091  0.000126  0.000006
               *** Restarting incremental Fock matrix formation ***
  1   -250.78508991  -0.0000015015  0.000042  0.000073  0.000053  0.000002
  2   -250.78509004  -0.0000001348  0.000023  0.000053  0.000045  0.000001
  3   -250.78509004  -0.0000000011  0.000022  0.000027  0.000023  0.000001
                  ***Gradient check signals convergence***
              ***Rediagonalizing the Fockian in SOSCF/NRSCF***

               *****************************************************
               *                     SUCCESS                       *
               *           SCF CONVERGED AFTER   4 CYCLES          *
               *****************************************************

Setting up the final grid:

General Integration Accuracy     IntAcc      ...  5.010
Radial Grid Type                 RadialGrid  ... Gauss-Chebyshev
Angular Grid (max. acc.)         AngularGrid ... Lebedev-434
Angular grid pruning method      GridPruning ... 3 (G Style)
Weight generation scheme         WeightScheme... Becke
Basis function cutoff            BFCut       ...    1.0000e-11
Integration weight cutoff        WCut        ...    1.0000e-14
Grids for H and He will be reduced by one unit

# of grid points (after initial pruning)     ... 131000 (   0.0 sec)
# of grid points (after weights+screening)   ... 118699 (   0.1 sec)
nearest neighbour list constructed           ...    0.0 sec
Grid point re-assignment to atoms done       ...    0.0 sec
Grid point division into batches done        ...    0.8 sec
Reduced shell lists constructed in    1.1 sec

Total number of grid points                  ...   118699
Total number of batches                      ...     1862
Average number of points per batch           ...       63
Average number of grid points per atom       ...     7419
Average number of shells per batch           ...    86.32 (81.43%)
Average number of basis functions per batch  ...   207.15 (84.21%)
Average number of large shells per batch     ...    72.08 (83.50%)
Average number of large basis fcns per batch ...   173.91 (83.95%)
Maximum spatial batch extension              ...   2.69,  2.16,  1.94 au
Average spatial batch extension              ...   0.10,  0.10,  0.10 au

Final grid set up in    1.2 sec
Final integration                            ... done (   0.6 sec)
Change in XC energy                          ...     0.000375843
Integrated number of electrons               ...    45.999990168
Previous integrated no of electrons          ...    45.999952276
Total Energy       :         -250.78471422 Eh           -6824.19901 eV
  Last Energy change         ...   -1.3787e-08  Tolerance :   1.0000e-08
  Last MAX-Density change    ...    3.0668e-06  Tolerance :   1.0000e-07
             **** THE GBW FILE WAS UPDATED (0323_+.gbw) ****
             **** DENSITY FILE WAS UPDATED (0323_+.scfp.tmp) ****
             **** ENERGY FILE WAS UPDATED (0323_+.en.tmp) ****
Total SCF time: 0 days 0 hours 0 min 20 sec 
           ************************************************************
           *              Shut down parallel processing               *
           ************************************************************

-------------------------   --------------------
FINAL SINGLE POINT ENERGY      -250.784714215321
-------------------------   --------------------



           ************************************************************
           *        Program running with 8 parallel MPI-processes     *
           *              working on a common directory               *
           ************************************************************
------------------------------------------------------------------------------
                         ORCA SCF GRADIENT CALCULATION
------------------------------------------------------------------------------

Gradient of the Kohn-Sham DFT energy:
Kohn-Sham wavefunction type      ... RKS
Hartree-Fock exchange scaling    ...    0.250
Number of operators              ...    1
Number of atoms                  ...   16
Basis set dimensions             ...  246
Integral neglect threshold       ... 2.5e-11
Integral primitive cutoff        ... 2.5e-12

Nuclear repulsion gradient       ... done
One Electron Gradient            ... done
Pre-screening matrix             ... done
Starting the two electron gradient:
Two electron gradient done
Exchange-correlation gradient    ... done

------------------
CARTESIAN GRADIENT
------------------

   1   C   :    0.000020107   -0.000165912    0.000022166
   2   C   :   -0.000184158    0.000013916    0.000005683
   3   C   :    0.000105821    0.000066590   -0.000020629
   4   C   :    0.000015529    0.000161514    0.000103307
   5   C   :    0.000018315   -0.000098797    0.000059370
   6   N   :   -0.000010001   -0.000039192   -0.000192831
   7   H   :    0.000025206    0.000020875   -0.000002247
   8   H   :   -0.000014778    0.000027336   -0.000003059
   9   H   :   -0.000008103    0.000011240    0.000007694
  10   H   :    0.000032376    0.000015175   -0.000019246
  11   H   :    0.000032925   -0.000033703   -0.000007121
  12   H   :    0.000018426    0.000023239    0.000019771
  13   H   :   -0.000013154   -0.000001587   -0.000010605
  14   H   :   -0.000007863    0.000014425   -0.000005811
  15   H   :   -0.000050921   -0.000023231    0.000007115
  16   H   :    0.000020273    0.000008114    0.000036445

Norm of the cartesian gradient     ...    0.000425598
RMS gradient                       ...    0.000061430
MAX gradient                       ...    0.000192831

-------
TIMINGS
-------

Total SCF gradient time            ...       23.107 sec

One electron gradient       ....       0.079 sec  (  0.3%)
Prescreening matrices       ....       0.216 sec  (  0.9%)
Two electron gradient       ....      19.800 sec  ( 85.7%)
XC gradient                 ....       2.759 sec  ( 11.9%)
           ************************************************************
           *              Shut down parallel processing               *
           ************************************************************
------------------------------------------------------------------------------
                         ORCA GEOMETRY RELAXATION STEP
------------------------------------------------------------------------------

Reading the OPT-File                    .... done
Getting information on internals        .... done
Copying old internal coords+grads       .... done
Making the new internal coordinates     .... (new redundants).... done
Validating the new internal coordinates .... (new redundants).... done
Calculating the B-matrix                .... done
Calculating the G,G- and P matrices     .... done
Transforming gradient to internals      .... done
Projecting the internal gradient        .... done
Number of atoms                         ....  16
Number of internal coordinates          .... 110
Current Energy                          ....  -250.784714215 Eh
Current gradient norm                   ....     0.000425598 Eh/bohr
Maximum allowed component of the step   ....  0.300
Current trust radius                    ....  0.300
Updating the Hessian (BFGS)             .... done
Forming the augmented Hessian           .... done
Diagonalizing the augmented Hessian     .... done
Last element of RFO vector              ....  0.999907252
Lowest eigenvalues of augmented Hessian:
 -0.000001642  0.007617391  0.034598670  0.035081169  0.038457378
Length of the computed step             ....  0.013620664
The final length of the internal step   ....  0.013620664
Converting the step to cartesian space:
 Initial RMS(Int)=    0.0012986794
Transforming coordinates:
 Iter   0:  RMS(Cart)=    0.0032575977 RMS(Int)=    0.0012985602
 Iter   1:  RMS(Cart)=    0.0000040107 RMS(Int)=    0.0000021479
 Iter   2:  RMS(Cart)=    0.0000000104 RMS(Int)=    0.0000000039
done
Storing new coordinates                 .... done

                                .--------------------.
          ----------------------|Geometry convergence|---------------------
          Item                value                 Tolerance   Converged
          -----------------------------------------------------------------
          Energy change      -0.00000106            0.00000100      NO
          RMS gradient        0.00002192            0.00003000      YES
          MAX gradient        0.00009177            0.00010000      YES
          RMS step            0.00129868            0.00060000      NO
          MAX step            0.00474018            0.00100000      NO
          ....................................................
          Max(Bonds)      0.0005      Max(Angles)    0.04
          Max(Dihed)        0.27      Max(Improp)    0.00
          -----------------------------------------------------------------

The optimization has not yet converged - more geometry cycles are needed


    ---------------------------------------------------------------------------
                         Redundant Internal Coordinates
                            (Angstroem and degrees)

        Definition                    Value    dE/dq     Step     New-Value
    ----------------------------------------------------------------------------
     1. B(C   1,C   0)                1.4969  0.000075 -0.0004    1.4964   
     2. B(C   2,C   1)                1.4954 -0.000065  0.0003    1.4958   
     3. B(C   2,C   0)                1.5001 -0.000019  0.0001    1.5003   
     4. B(C   3,C   2)                1.4844  0.000016  0.0000    1.4844   
     5. B(C   4,C   3)                1.4732  0.000047 -0.0002    1.4730   
     6. B(N   5,C   4)                1.4826 -0.000011  0.0001    1.4827   
     7. B(N   5,C   3)                1.4928 -0.000092  0.0005    1.4932   
     8. B(H   6,C   0)                1.0819 -0.000001 -0.0001    1.0818   
     9. B(H   7,C   0)                1.0865 -0.000012  0.0001    1.0865   
    10. B(H   8,C   1)                1.0816 -0.000003 -0.0000    1.0816   
    11. B(H   9,C   1)                1.0841  0.000003 -0.0001    1.0840   
    12. B(H  10,C   2)                1.0856  0.000002  0.0000    1.0856   
    13. B(H  11,C   3)                1.0860 -0.000000  0.0000    1.0860   
    14. B(H  12,C   4)                1.0827 -0.000004  0.0001    1.0828   
    15. B(H  13,C   4)                1.0821 -0.000002 -0.0001    1.0820   
    16. B(H  14,N   5)                1.0138  0.000010  0.0000    1.0138   
    17. B(H  15,N   5)                1.0150  0.000014  0.0001    1.0151   
    18. A(C   1,C   0,C   2)           59.86 -0.000038    0.02     59.89   
    19. A(C   2,C   0,H   7)          121.05  0.000005    0.00    121.05   
    20. A(C   2,C   0,H   6)          117.08  0.000021   -0.03    117.05   
    21. A(H   6,C   0,H   7)          112.64 -0.000007   -0.00    112.64   
    22. A(C   1,C   0,H   7)          117.74  0.000000    0.01    117.75   
    23. A(C   1,C   0,H   6)          119.03  0.000009    0.01    119.04   
    24. A(C   0,C   1,H   9)          117.46  0.000000    0.01    117.48   
    25. A(H   8,C   1,H   9)          114.16 -0.000014    0.01    114.17   
    26. A(C   2,C   1,H   8)          117.81  0.000007    0.00    117.82   
    27. A(C   0,C   1,C   2)           60.18 -0.000010    0.01     60.18   
    28. A(C   0,C   1,H   8)          118.75  0.000009   -0.01    118.74   
    29. A(C   2,C   1,H   9)          118.17  0.000013   -0.03    118.14   
    30. A(C   3,C   2,H  10)          110.60  0.000024   -0.00    110.60   
    31. A(C   1,C   2,H  10)          116.61 -0.000015    0.01    116.62   
    32. A(C   0,C   2,H  10)          116.03 -0.000015    0.01    116.04   
    33. A(C   1,C   2,C   3)          121.81 -0.000018   -0.02    121.80   
    34. A(C   0,C   2,C   3)          123.63 -0.000023    0.01    123.64   
    35. A(C   0,C   2,C   1)           59.96  0.000048   -0.03     59.93   
    36. A(C   2,C   3,N   5)          117.92 -0.000003   -0.00    117.92   
    37. A(C   2,C   3,C   4)          122.15 -0.000011    0.02    122.18   
    38. A(C   4,C   3,H  11)          116.23 -0.000007   -0.00    116.23   
    39. A(C   2,C   3,H  11)          116.52  0.000016   -0.01    116.51   
    40. A(N   5,C   3,H  11)          110.97 -0.000005   -0.00    110.97   
    41. A(C   4,C   3,N   5)           59.98  0.000005   -0.00     59.98   
    42. A(N   5,C   4,H  13)          114.11  0.000008   -0.00    114.10   
    43. A(C   3,C   4,H  13)          120.31 -0.000009    0.01    120.32   
    44. A(N   5,C   4,H  12)          113.30  0.000022   -0.02    113.29   
    45. A(C   3,C   4,H  12)          118.58  0.000018    0.00    118.58   
    46. A(C   3,C   4,N   5)           60.67 -0.000045    0.02     60.69   
    47. A(H  12,C   4,H  13)          116.63 -0.000005   -0.01    116.63   
    48. A(C   3,N   5,C   4)           59.35  0.000040   -0.02     59.33   
    49. A(H  14,N   5,H  15)          114.50  0.000015   -0.00    114.50   
    50. A(C   4,N   5,H  15)          117.26  0.000004   -0.01    117.25   
    51. A(C   3,N   5,H  15)          117.27  0.000016   -0.03    117.24   
    52. A(C   4,N   5,H  14)          118.64 -0.000035    0.04    118.68   
    53. A(C   3,N   5,H  14)          118.96 -0.000034    0.02    118.98   
    54. D(C   2,C   1,C   0,H   6)    106.25  0.000006   -0.03    106.22   
    55. D(H   8,C   1,C   0,H   7)    140.98  0.000006   -0.02    140.96   
    56. D(H   9,C   1,C   0,H   7)     -3.25  0.000018   -0.04     -3.29   
    57. D(H   8,C   1,C   0,H   6)     -1.14  0.000005   -0.05     -1.19   
    58. D(H   9,C   1,C   0,C   2)    108.37  0.000012   -0.04    108.34   
    59. D(H   8,C   1,C   0,C   2)   -107.39 -0.000001   -0.01   -107.41   
    60. D(H   9,C   1,C   0,H   6)   -145.37  0.000018   -0.07   -145.44   
    61. D(C   2,C   1,C   0,H   7)   -111.63  0.000006   -0.00   -111.63   
    62. D(C   3,C   2,C   0,C   1)   -110.28 -0.000009    0.04   -110.24   
    63. D(H  10,C   2,C   1,H   9)    146.68  0.000003   -0.03    146.65   
    64. D(C   1,C   2,C   0,H   7)    106.18 -0.000019    0.03    106.21   
    65. D(H  10,C   2,C   0,C   1)    107.06  0.000005   -0.00    107.06   
    66. D(C   3,C   2,C   0,H   6)    140.24  0.000002    0.01    140.25   
    67. D(H  10,C   2,C   1,C   0)   -106.10 -0.000006    0.00   -106.09   
    68. D(C   3,C   2,C   1,H   9)      5.99  0.000008   -0.02      5.97   
    69. D(C   3,C   2,C   0,H   7)     -4.10 -0.000028    0.06     -4.04   
    70. D(C   3,C   2,C   1,H   8)   -137.85  0.000004   -0.00   -137.86   
    71. D(C   1,C   2,C   0,H   6)   -109.47  0.000011   -0.03   -109.51   
    72. D(C   0,C   2,C   1,H   9)   -107.22  0.000009   -0.03   -107.25   
    73. D(C   0,C   2,C   1,H   8)    108.94  0.000005   -0.01    108.92   
    74. D(C   3,C   2,C   1,C   0)    113.21 -0.000001    0.01    113.22   
    75. D(H  10,C   2,C   1,H   8)      2.84 -0.000001   -0.01      2.83   
    76. D(H  10,C   2,C   0,H   7)   -146.76 -0.000014    0.02   -146.74   
    77. D(H  10,C   2,C   0,H   6)     -2.41  0.000017   -0.04     -2.45   
    78. D(N   5,C   3,C   2,H  10)    154.01 -0.000030    0.27    154.29   
    79. D(N   5,C   3,C   2,C   1)    -63.22 -0.000047    0.27    -62.95   
    80. D(N   5,C   3,C   2,C   0)      9.63 -0.000005    0.23      9.86   
    81. D(C   4,C   3,C   2,C   0)    -60.76 -0.000006    0.23    -60.53   
    82. D(C   4,C   3,C   2,H  10)     83.63 -0.000031    0.27     83.90   
    83. D(H  11,C   3,C   2,C   0)    145.45  0.000003    0.20    145.65   
    84. D(H  11,C   3,C   2,H  10)    -70.16 -0.000022    0.25    -69.92   
    85. D(H  11,C   3,C   2,C   1)     72.60 -0.000039    0.24     72.85   
    86. D(C   4,C   3,C   2,C   1)   -133.61 -0.000048    0.27   -133.34   
    87. D(H  13,C   4,C   3,H  11)      2.23 -0.000007    0.01      2.23   
    88. D(H  13,C   4,C   3,N   5)    102.37 -0.000008    0.00    102.37   
    89. D(H  13,C   4,C   3,C   2)   -151.63 -0.000004   -0.01   -151.65   
    90. D(H  12,C   4,C   3,H  11)    157.70  0.000001    0.02    157.72   
    91. D(H  12,C   4,C   3,N   5)   -102.16  0.000001    0.01   -102.15   
    92. D(H  12,C   4,C   3,C   2)      3.84  0.000004   -0.00      3.84   
    93. D(N   5,C   4,C   3,H  11)   -100.14  0.000001    0.00   -100.14   
    94. D(N   5,C   4,C   3,C   2)    106.00  0.000004   -0.01    105.98   
    95. D(H  15,N   5,C   4,H  13)    140.41 -0.000006    0.02    140.43   
    96. D(H  15,N   5,C   4,H  12)      3.73 -0.000031    0.06      3.79   
    97. D(H  14,N   5,C   4,H  13)     -3.98  0.000014   -0.02     -4.00   
    98. D(H  14,N   5,C   4,H  12)   -140.65 -0.000011    0.02   -140.64   
    99. D(H  14,N   5,C   4,C   3)    108.52 -0.000011   -0.00    108.52   
   100. D(C   3,N   5,C   4,H  13)   -112.50  0.000026   -0.02   -112.52   
   101. D(C   3,N   5,C   4,H  12)    110.82  0.000000    0.02    110.84   
   102. D(H  15,N   5,C   3,H  11)   -143.96  0.000007   -0.00   -143.96   
   103. D(H  15,N   5,C   3,C   4)    107.06  0.000012   -0.00    107.06   
   104. D(H  15,N   5,C   3,C   2)     -5.85  0.000023   -0.03     -5.88   
   105. D(H  14,N   5,C   3,H  11)      0.99  0.000007   -0.03      0.96   
   106. D(H  14,N   5,C   3,C   4)   -107.99  0.000012   -0.03   -108.02   
   107. D(H  15,N   5,C   4,C   3)   -107.09 -0.000032    0.04   -107.05   
   108. D(H  14,N   5,C   3,C   2)    139.09  0.000023   -0.05    139.04   
   109. D(C   4,N   5,C   3,H  11)    108.98 -0.000005   -0.00    108.98   
   110. D(C   4,N   5,C   3,C   2)   -112.92  0.000011   -0.03   -112.94   
    ----------------------------------------------------------------------------

         *************************************************************
         *                GEOMETRY OPTIMIZATION CYCLE   3            *
         *************************************************************
---------------------------------
CARTESIAN COORDINATES (ANGSTROEM)
---------------------------------
  C      1.247812   -0.001922   -1.163645
  C      0.492247    1.271858   -1.377968
  C     -0.236677    0.037711   -0.950385
  C     -0.879014   -0.068639    0.383627
  C     -0.710343   -1.252756    1.243285
  N     -0.001644    0.002617    1.589798
  H      1.606818   -0.550697   -2.024080
  H      1.933858   -0.047778   -0.322330
  H      0.340552    1.622638   -2.389771
  H      0.628887    2.063054   -0.649686
  H     -0.839938   -0.457037   -1.705274
  H     -1.789082    0.505508    0.530605
  H     -0.046471   -2.042057    0.913505
  H     -1.483957   -1.531969    1.946372
  H     -0.315867    0.532268    2.395158
  H      1.001065    0.028415    1.434110

----------------------------
CARTESIAN COORDINATES (A.U.)
----------------------------
  NO LB      ZA    FRAG    MASS        X           Y           Z
   0 C     6.0000    0    12.011          2.358023566142789         -0.003632251324869         -2.198970819217053
   1 C     6.0000    0    12.011          0.930211308333988          2.403463173979285         -2.603982151589193
   2 C     6.0000    0    12.011         -0.447255307096926          0.071263941241348         -1.795966794900934
   3 C     6.0000    0    12.011         -1.661095156731468         -0.129708191849596          0.724950556288265
   4 C     6.0000    0    12.011         -1.342353497267220         -2.367366265531902          2.349468319797399
   5 N     7.0000    0    14.007         -0.003107420382640          0.004946081946302          3.004282659833749
   6 H     1.0000    0     1.008          3.036446859647646         -1.040665664436063         -3.824957445411802
   7 H     1.0000    0     1.008          3.654461896247953         -0.090287573988653         -0.609116327954159
   8 H     1.0000    0     1.008          0.643550615472746          3.066342004606301         -4.516013160820699
   9 H     1.0000    0     1.008          1.188423758524953          3.898607001650063         -1.227728835793753
  10 H     1.0000    0     1.008         -1.587253374240572         -0.863675626851309         -3.222500196201584
  11 H     1.0000    0     1.008         -3.380874548249632          0.955271677821828          1.002697828840983
  12 H     1.0000    0     1.008         -0.087817687483515         -3.858928023458374          1.726274232794213
  13 H     1.0000    0     1.008         -2.804271851712379         -2.895002012073852          3.678109382092097
  14 H     1.0000    0     1.008         -0.596902794709254          1.005841216109458          4.526192121045098
  15 H     1.0000    0     1.008          1.891738655043979          0.053697088343640          2.710074959010129

--------------------------------
INTERNAL COORDINATES (ANGSTROEM)
--------------------------------
 C      0   0   0   0.000000     0.000     0.000
 C      1   0   0   1.496439     0.000     0.000
 C      2   1   0   1.495753    60.184     0.000
 C      3   2   1   1.484417   121.796   113.223
 C      4   3   2   1.472955   122.177   226.659
 N      5   4   3   1.482662    60.690   105.983
 H      1   2   3   1.081844   119.040   106.221
 H      1   2   3   1.086541   117.751   248.369
 H      2   1   3   1.081575   118.742   252.593
 H      2   1   3   1.084000   117.479   108.338
 H      3   2   1   1.085614   116.619   253.907
 H      4   3   2   1.086034   116.510    72.846
 H      5   4   3   1.082809   118.585     3.838
 H      5   4   3   1.082021   120.319   208.354
 H      6   5   4   1.013840   118.675   108.523
 H      6   5   4   1.015052   117.249   252.950

---------------------------
INTERNAL COORDINATES (A.U.)
---------------------------
 C      0   0   0   0.000000     0.000     0.000
 C      1   0   0   2.827860     0.000     0.000
 C      2   1   0   2.826563    60.184     0.000
 C      3   2   1   2.805142   121.796   113.223
 C      4   3   2   2.783481   122.177   226.659
 N      5   4   3   2.801826    60.690   105.983
 H      1   2   3   2.044390   119.040   106.221
 H      1   2   3   2.053265   117.751   248.369
 H      2   1   3   2.043880   118.742   252.593
 H      2   1   3   2.048463   117.479   108.338
 H      3   2   1   2.051513   116.619   253.907
 H      4   3   2   2.052307   116.510    72.846
 H      5   4   3   2.046213   118.585     3.838
 H      5   4   3   2.044723   120.319   208.354
 H      6   5   4   1.915879   118.675   108.523
 H      6   5   4   1.918170   117.249   252.950



           ************************************************************
           *        Program running with 8 parallel MPI-processes     *
           *              working on a common directory               *
           ************************************************************
           ************************************************************
           *              Shut down parallel processing               *
           ************************************************************


           ************************************************************
           *        Program running with 8 parallel MPI-processes     *
           *              working on a common directory               *
           ************************************************************

Diagonalization of the overlap matrix:
Smallest eigenvalue                        ... 1.177e-04
Time for diagonalization                   ...    0.015 sec
Threshold for overlap eigenvalues          ... 1.000e-08
Number of eigenvalues below threshold      ... 0
Time for construction of square roots      ...    0.007 sec
Total time needed                          ...    0.022 sec

-------------------
DFT GRID GENERATION
-------------------

General Integration Accuracy     IntAcc      ...  4.340
Radial Grid Type                 RadialGrid  ... Gauss-Chebyshev
Angular Grid (max. acc.)         AngularGrid ... Lebedev-194
Angular grid pruning method      GridPruning ... 3 (G Style)
Weight generation scheme         WeightScheme... Becke
Basis function cutoff            BFCut       ...    1.0000e-11
Integration weight cutoff        WCut        ...    1.0000e-14
Grids for H and He will be reduced by one unit

# of grid points (after initial pruning)     ...  35004 (   0.0 sec)
# of grid points (after weights+screening)   ...  32082 (   0.0 sec)
nearest neighbour list constructed           ...    0.0 sec
Grid point re-assignment to atoms done       ...    0.0 sec
Grid point division into batches done        ...    0.1 sec
Reduced shell lists constructed in    0.1 sec

Total number of grid points                  ...    32082
Total number of batches                      ...      510
Average number of points per batch           ...       62
Average number of grid points per atom       ...     2005
Average number of shells per batch           ...    86.78 (81.87%)
Average number of basis functions per batch  ...   208.63 (84.81%)
Average number of large shells per batch     ...    72.71 (83.78%)
Average number of large basis fcns per batch ...   175.02 (83.89%)
Maximum spatial batch extension              ...   4.32,  2.00,  2.43 au
Average spatial batch extension              ...   0.17,  0.15,  0.15 au

Time for grid setup =    0.167 sec

--------------
SCF ITERATIONS
--------------
ITER       Energy         Delta-E        Max-DP      RMS-DP      [F,P]     Damp
               ***  Starting incremental Fock matrix formation  ***
                      *** Initiating the SOSCF procedure ***
                      *** Re-Reading the Fockian *** 
                      *** Removing any level shift *** 
ITER      Energy       Delta-E        Grad      Rot      Max-DP    RMS-DP
  0   -250.78508258 -250.7850825817  0.000241  0.000241  0.000328  0.000012
               *** Restarting incremental Fock matrix formation ***
  1   -250.78509000  -0.0000074199  0.000097  0.000192  0.000137  0.000005
  2   -250.78509070  -0.0000006996  0.000021  0.000054  0.000051  0.000001
  3   -250.78509070  -0.0000000005  0.000019  0.000020  0.000030  0.000001
                  ***Gradient check signals convergence***
              ***Rediagonalizing the Fockian in SOSCF/NRSCF***

               *****************************************************
               *                     SUCCESS                       *
               *           SCF CONVERGED AFTER   4 CYCLES          *
               *****************************************************

Setting up the final grid:

General Integration Accuracy     IntAcc      ...  5.010
Radial Grid Type                 RadialGrid  ... Gauss-Chebyshev
Angular Grid (max. acc.)         AngularGrid ... Lebedev-434
Angular grid pruning method      GridPruning ... 3 (G Style)
Weight generation scheme         WeightScheme... Becke
Basis function cutoff            BFCut       ...    1.0000e-11
Integration weight cutoff        WCut        ...    1.0000e-14
Grids for H and He will be reduced by one unit

# of grid points (after initial pruning)     ... 131000 (   0.0 sec)
# of grid points (after weights+screening)   ... 118695 (   0.1 sec)
nearest neighbour list constructed           ...    0.0 sec
Grid point re-assignment to atoms done       ...    0.0 sec
Grid point division into batches done        ...    0.8 sec
Reduced shell lists constructed in    1.1 sec

Total number of grid points                  ...   118695
Total number of batches                      ...     1863
Average number of points per batch           ...       63
Average number of grid points per atom       ...     7418
Average number of shells per batch           ...    86.37 (81.48%)
Average number of basis functions per batch  ...   207.37 (84.30%)
Average number of large shells per batch     ...    72.05 (83.42%)
Average number of large basis fcns per batch ...   173.85 (83.84%)
Maximum spatial batch extension              ...   2.69,  2.16,  1.94 au
Average spatial batch extension              ...   0.10,  0.10,  0.10 au

Final grid set up in    1.2 sec
Final integration                            ... done (   0.6 sec)
Change in XC energy                          ...     0.000375491
Integrated number of electrons               ...    45.999990213
Previous integrated no of electrons          ...    45.999939068
Total Energy       :         -250.78471523 Eh           -6824.19904 eV
  Last Energy change         ...   -2.1855e-08  Tolerance :   1.0000e-08
  Last MAX-Density change    ...    4.4096e-06  Tolerance :   1.0000e-07
             **** THE GBW FILE WAS UPDATED (0323_+.gbw) ****
             **** DENSITY FILE WAS UPDATED (0323_+.scfp.tmp) ****
             **** ENERGY FILE WAS UPDATED (0323_+.en.tmp) ****
Total SCF time: 0 days 0 hours 0 min 21 sec 
           ************************************************************
           *              Shut down parallel processing               *
           ************************************************************

-------------------------   --------------------
FINAL SINGLE POINT ENERGY      -250.784715232814
-------------------------   --------------------



           ************************************************************
           *        Program running with 8 parallel MPI-processes     *
           *              working on a common directory               *
           ************************************************************
------------------------------------------------------------------------------
                         ORCA SCF GRADIENT CALCULATION
------------------------------------------------------------------------------

Gradient of the Kohn-Sham DFT energy:
Kohn-Sham wavefunction type      ... RKS
Hartree-Fock exchange scaling    ...    0.250
Number of operators              ...    1
Number of atoms                  ...   16
Basis set dimensions             ...  246
Integral neglect threshold       ... 2.5e-11
Integral primitive cutoff        ... 2.5e-12

Nuclear repulsion gradient       ... done
One Electron Gradient            ... done
Pre-screening matrix             ... done
Starting the two electron gradient:
Two electron gradient done
Exchange-correlation gradient    ... done

------------------
CARTESIAN GRADIENT
------------------

   1   C   :    0.000016250    0.000013537   -0.000161904
   2   C   :    0.000024924    0.000032679    0.000071759
   3   C   :   -0.000011852   -0.000067710    0.000011838
   4   C   :   -0.000071807    0.000056439    0.000055079
   5   C   :   -0.000124718   -0.000001989    0.000016838
   6   N   :   -0.000037801   -0.000061108    0.000020269
   7   H   :   -0.000018949    0.000024011    0.000051151
   8   H   :    0.000007250    0.000054638    0.000009555
   9   H   :    0.000024669   -0.000019421    0.000006649
[...]
      8      -0.012334  -0.005692  -0.058012  -0.148994  -0.000827  -0.034913
      9      -0.024258  -0.068007  -0.017677  -0.067606  -0.000781   0.001126
     10      -0.013581   0.127437   0.020445  -0.056470  -0.001989  -0.028035
     11      -0.029558  -0.074713  -0.108447   0.179193  -0.000072   0.085023
     12       0.099512   0.000689  -0.016388   0.013166  -0.001099   0.023530
     13      -0.057092  -0.112024  -0.013610   0.007901   0.001255   0.114945
     14      -0.040667   0.089013   0.027558  -0.025733  -0.001380  -0.035154
     15      -0.064820   0.098277  -0.001851   0.012704  -0.004072  -0.001172
     16       0.039353   0.010982   0.019995  -0.023616  -0.004334   0.004214
     17       0.056101   0.000580   0.006325  -0.021911  -0.003925  -0.015122
     18       0.005402   0.010841  -0.180947  -0.341074  -0.386856  -0.024919
     19      -0.071748  -0.080937   0.030096   0.023669   0.128589  -0.005241
     20       0.027646   0.029325  -0.056952  -0.109713  -0.257160   0.007184
     21       0.117296   0.064701  -0.091927  -0.128350  -0.295537   0.011214
     22      -0.007164   0.048458   0.126134   0.152208   0.242972   0.002244
     23      -0.034620  -0.019587   0.065314   0.122164   0.277964  -0.010373
     24      -0.072993  -0.049750  -0.066707  -0.130641   0.036965  -0.012436
     25       0.050434  -0.004219  -0.214341  -0.298754   0.478250   0.015706
     26       0.011863   0.019054  -0.032332  -0.057497   0.189741   0.018829
     27       0.059156   0.049195   0.076678   0.066675  -0.043705  -0.001383
     28       0.102897   0.104354  -0.113932  -0.167894   0.334932   0.016023
     29      -0.052284  -0.056029   0.109035   0.163401  -0.384791  -0.028916
     30      -0.244162  -0.216895  -0.360017  -0.255810  -0.016594  -0.015970
     31      -0.128485  -0.171674  -0.117181  -0.112713   0.016873  -0.003980
     32       0.192557   0.225079   0.393583   0.228565   0.003434   0.003766
     33       0.175694  -0.280605   0.004568  -0.042164   0.003513  -0.001360
     34       0.332819  -0.054271  -0.132121   0.144478  -0.002162   0.026143
     35      -0.097276  -0.589986   0.644938  -0.394930   0.020750  -0.147976
     36      -0.307449  -0.008460  -0.129006   0.213035   0.008321  -0.403169
     37      -0.378231  -0.124075  -0.097319   0.193365   0.010835  -0.420213
     38      -0.157889   0.069747  -0.016041  -0.037149  -0.004378   0.352119
     39       0.140029  -0.247365   0.038856  -0.128868  -0.002730   0.204091
     40       0.300890  -0.327271  -0.205928   0.347980   0.010778  -0.612416
     41       0.136046  -0.244420   0.022899  -0.059057   0.000295  -0.126372
     42       0.177418  -0.031023   0.076339  -0.112432   0.067656  -0.165049
     43       0.333732   0.029745   0.001205   0.028978   0.015057  -0.038031
     44      -0.030516  -0.057552   0.052725  -0.115871   0.013674  -0.056128
     45      -0.068936   0.141803  -0.010631   0.025211  -0.004520  -0.005833
     46      -0.340286   0.142757   0.102116  -0.070664   0.040800  -0.115600
     47      -0.027355   0.232811  -0.011558   0.053202   0.024829  -0.088902
                 36         37         38         39         40         41    
      0       0.112816  -0.008575  -0.059404  -0.008708   0.000941   0.000015
      1      -0.058008   0.004497   0.022480   0.004890  -0.000431   0.001545
      2      -0.005985   0.001980  -0.029423  -0.001566  -0.000027   0.005119
      3       0.006431  -0.000328   0.000820  -0.002595   0.000036   0.000663
      4       0.115260  -0.001725   0.004972  -0.067316   0.000222   0.001454
      5      -0.038785   0.001722   0.003036  -0.001039  -0.000051   0.004569
      6      -0.100647   0.001541   0.002860   0.003196   0.001593  -0.043809
      7      -0.043211   0.006517   0.001205   0.002243   0.001121  -0.034706
      8       0.067396  -0.008614   0.000029  -0.000431   0.002486  -0.055006
      9       0.030603   0.000344  -0.001343  -0.000383  -0.003111   0.027286
     10       0.007454  -0.026993   0.000596   0.000314   0.000548  -0.017728
     11      -0.020040   0.031978  -0.000445  -0.000165   0.002968  -0.004394
     12       0.000920  -0.002082  -0.000209   0.000026   0.004516  -0.001101
     13       0.013617   0.032208   0.000705   0.000209   0.061863   0.004911
     14      -0.003251  -0.021364  -0.000273  -0.000107  -0.019953  -0.000464
     15      -0.008263  -0.052010  -0.000985  -0.000067  -0.001171  -0.000707
     16      -0.003853  -0.045401  -0.000091   0.000061  -0.001500  -0.000176
     17      -0.001287  -0.051091  -0.000124   0.000136  -0.001062   0.000875
     18      -0.352905   0.047622   0.121020   0.017038  -0.002864   0.017374
     19       0.115426  -0.025768  -0.207278  -0.028088   0.004923  -0.029682
     20      -0.300166   0.042495  -0.352708  -0.051854   0.008062  -0.045032
     21      -0.302135   0.057462   0.549074   0.052300  -0.007102  -0.002092
     22       0.220958  -0.014646  -0.040403  -0.002347   0.000397   0.002541
     23       0.333649  -0.058997   0.704564   0.069870  -0.009127  -0.008924
     24      -0.033191   0.007992   0.006579  -0.079247   0.000384  -0.007407
     25      -0.366431  -0.015192  -0.015007   0.173414  -0.001017   0.015663
     26      -0.204857  -0.003799   0.040284  -0.536653   0.002309  -0.041434
     27       0.018330  -0.001560  -0.013454   0.110324  -0.000671   0.001316
     28      -0.274530  -0.005488  -0.074585   0.576393  -0.001818  -0.011188
     29       0.366538   0.006276  -0.070177   0.561297  -0.001533  -0.014376
     30       0.131249   0.002509  -0.002669  -0.004347  -0.020077   0.504706
     31       0.046324  -0.005164  -0.004019  -0.002366  -0.015932   0.402909
     32      -0.172778  -0.002414  -0.007306  -0.008353  -0.027252   0.649921
     33       0.021078   0.020417   0.013298   0.003658   0.046225  -0.320461
     34      -0.004522   0.021146  -0.008264  -0.003532  -0.030365   0.197294
     35      -0.049505  -0.044046  -0.000493   0.000747  -0.005264   0.048839
     36      -0.059729  -0.043576   0.005858   0.001826   0.452505   0.033053
     37      -0.059861  -0.036070  -0.007878  -0.002005  -0.512879  -0.037764
     38       0.045829   0.060809  -0.002861  -0.001114  -0.222266  -0.019033
     39       0.038118   0.043645  -0.005707  -0.002330  -0.494974  -0.018482
     40      -0.105965  -0.062714  -0.001735  -0.000543  -0.171644  -0.005610
     41      -0.009422  -0.012403   0.006090   0.002491   0.446400   0.017338
     42       0.072241   0.662572   0.001733   0.000212  -0.000168   0.002325
     43       0.005459   0.188373   0.001488  -0.000210  -0.003661  -0.002268
     44       0.028939   0.102656   0.001983   0.000343  -0.003491   0.000848
     45      -0.015474   0.034058   0.020429   0.002339  -0.004352   0.001407
     46       0.058302   0.413566   0.001978  -0.000666  -0.001696   0.001071
     47      -0.012400   0.551436   0.004969   0.000758   0.000616  -0.002425
                 42         43         44         45         46         47    
      0      -0.001758   0.004044   0.000335  -0.000201   0.001406  -0.001038
      1      -0.000612  -0.035186  -0.011207  -0.000037  -0.000038   0.000096
      2      -0.002371  -0.084218  -0.027813   0.000005   0.001322  -0.000829
      3      -0.000393   0.004787  -0.015059  -0.000166   0.000091  -0.000034
      4      -0.000585   0.003103  -0.009964   0.000005   0.000013  -0.000047
      5      -0.001672   0.030811  -0.092337  -0.000528  -0.000284   0.000080
      6       0.018040  -0.002558  -0.003662  -0.000134   0.000160   0.000393
      7       0.014070  -0.001774  -0.002714  -0.000300   0.000092   0.000219
      8       0.023775  -0.002049  -0.003278   0.000023   0.000608  -0.000004
      9       0.068315  -0.000749  -0.000075   0.003338  -0.000054   0.000292
     10      -0.041162   0.000393  -0.000524  -0.002402  -0.001508  -0.000256
     11      -0.009648  -0.000204  -0.000028  -0.000024  -0.000114   0.000961
     12      -0.003663   0.000078  -0.000501   0.080535  -0.000191   0.000349
     13       0.005153  -0.000243   0.000204  -0.025763   0.001526   0.000272
     14       0.001490  -0.000142   0.000294  -0.057879  -0.001087  -0.000209
     15      -0.002031  -0.000597  -0.000125  -0.001946  -0.040194   0.063106
     16      -0.000133  -0.000068   0.000053   0.000560  -0.025476  -0.028140
     17      -0.000367  -0.000009   0.000165   0.001291  -0.026584  -0.052168
     18      -0.005658  -0.279718  -0.088213  -0.000023  -0.001105   0.001116
     19       0.010357   0.430887   0.138919  -0.000123   0.000443  -0.000749
     20       0.014068   0.692120   0.216621  -0.000198  -0.002303   0.001339
     21       0.010861   0.243061   0.095025   0.001106  -0.013596   0.009310
     22      -0.001584  -0.022082  -0.012560  -0.000153   0.000651  -0.000683
     23       0.015941   0.297734   0.118085   0.001527  -0.011989   0.007967
     24       0.003386  -0.035026   0.106388   0.000602  -0.000938   0.000641
     25      -0.003213   0.088599  -0.257999  -0.001280  -0.000256   0.000019
     26       0.011567  -0.251172   0.722805   0.004473   0.001116  -0.000131
     27       0.000371  -0.024448   0.070894   0.000577   0.000363  -0.000305
     28       0.005070  -0.113742   0.389042   0.002028   0.000594   0.000182
     29       0.005356  -0.108797   0.363051   0.001762   0.000163   0.000361
     30      -0.208856   0.025620   0.037440   0.000266  -0.002950   0.000247
     31      -0.166730   0.016175   0.032058   0.000292  -0.000773  -0.000009
     32      -0.272847   0.030176   0.045624  -0.000025  -0.000098   0.000919
     33      -0.775627   0.001786  -0.002915  -0.038643  -0.000225  -0.008016
     34       0.474456  -0.001446   0.001387   0.029493   0.002409   0.002897
     35       0.125089   0.000875   0.000810   0.005396   0.005900  -0.001015
     36       0.033455  -0.001709   0.002826  -0.429117   0.005332  -0.001924
     37      -0.038585   0.001505  -0.003328   0.492256   0.001260   0.007065
     38      -0.021674   0.000952  -0.001551   0.203878   0.000064   0.003936
     39       0.007006   0.000501   0.002479  -0.512477   0.000170  -0.008031
     40       0.002222   0.000332   0.001030  -0.185640   0.004494  -0.003493
     41      -0.001412  -0.000374  -0.001690   0.470894   0.005130   0.003631
     42       0.004736   0.000382   0.000474   0.005537  -0.212480  -0.257284
     43      -0.007106   0.001324  -0.000321   0.001835   0.322825   0.404491
     44      -0.003039   0.001658   0.000231  -0.008746   0.492272   0.615157
     45      -0.001150   0.011089   0.003287   0.005789   0.767131  -0.612203
     46       0.002661   0.001045  -0.000554  -0.006911   0.021345  -0.022069
     47      -0.005866   0.001875   0.001291  -0.000989  -0.126149   0.092772


-----------
IR SPECTRUM
-----------

 Mode    freq (cm**-1)   T**2         TX         TY         TZ
-------------------------------------------------------------------
   6:        61.54    1.860093  (  0.576499  -1.122705   0.516987)
   7:       210.21    2.254336  ( -0.468162  -0.734528   1.222959)
   8:       242.66   10.113593  ( -1.357437  -0.230829   2.866649)
   9:       442.97    0.787964  ( -0.834320   0.067048   0.295599)
  10:       498.88    2.441709  (  0.183062   0.689848  -1.390074)
  11:       714.24    4.032477  (  1.927520   0.562798   0.020052)
  12:       776.44    0.037960  ( -0.091667  -0.114988  -0.127808)
  13:       822.98   11.561093  (  0.930442   2.906053   1.500075)
  14:       837.54   10.181482  ( -2.447610   0.727194  -1.913603)
  15:       880.42    6.937288  (  0.377577   0.297347  -2.589654)
  16:       883.68    0.422039  ( -0.483253  -0.226624  -0.370334)
  17:       925.66    8.942571  (  0.903388   1.951098   2.078383)
  18:       954.20    3.952864  ( -0.285982   1.773491   0.851944)
  19:       988.54   18.958931  ( -4.017311  -0.578267  -1.576627)
  20:      1030.05   98.356449  (  0.867958  -7.229252   6.733574)
  21:      1063.09    9.104184  (  2.420229   1.673191  -0.668660)
  22:      1094.01    8.142321  ( -1.983259   1.890620  -0.796592)
  23:      1117.11    2.762701  (  1.297563   0.190585  -1.021131)
  24:      1124.67    1.856903  (  0.811486  -0.744777   0.802310)
  25:      1155.04    4.915204  ( -0.800752   0.026523   2.067195)
  26:      1167.16    2.096899  (  1.032972  -0.062568   1.012893)
  27:      1185.00    0.446202  ( -0.314385  -0.064135  -0.585876)
  28:      1190.12    1.344985  ( -0.623217   0.839138  -0.502427)
  29:      1235.41    1.774229  (  0.838532   1.008993  -0.230274)
  30:      1255.80    5.412001  (  1.589789   0.677738  -1.557319)
  31:      1279.82    3.952501  ( -1.858212  -0.313397  -0.633507)
  32:      1389.55    3.444588  (  0.477181  -0.450303  -1.736120)
  33:      1449.02   12.201039  ( -3.157727   0.157845   1.484884)
  34:      1470.62    9.855632  ( -1.244819   2.881551   0.052177)
  35:      1490.55   15.453957  ( -1.178188  -3.306102   1.770739)
  36:      1521.43    1.068151  ( -0.563535  -0.696727  -0.514927)
  37:      1619.34   74.371855  (  4.708763   2.256580   6.863472)
  38:      3133.18   14.246614  ( -1.256913   0.901098  -3.443081)
  39:      3158.22    3.601945  ( -0.024661  -1.069524  -1.567627)
  40:      3172.56    2.964773  ( -0.279444  -1.607653   0.549669)
  41:      3175.05    0.800032  ( -0.048990   0.378790   0.808796)
  42:      3181.17    2.685916  ( -0.178616   0.570051  -1.526124)
  43:      3232.42    0.665774  ( -0.392815   0.460182  -0.547451)
  44:      3251.91    0.087816  ( -0.134882  -0.220293  -0.145237)
  45:      3277.05    5.829014  ( -1.911133   0.760568   1.264168)
  46:      3507.28   74.159901  (  5.421444   4.725431   4.736892)
  47:      3614.14  144.413363  ( -7.448124   3.518568   8.749771)

The first frequency considered to be a vibration is 6
The total number of vibrations considered is 42


--------------------------
THERMOCHEMISTRY AT 298.15K
--------------------------

Temperature         ... 298.15 K
Pressure            ... 1.00 atm
Total Mass          ... 84.14 AMU

Throughout the following assumptions are being made:
  (1) The electronic state is orbitally nondegenerate
  (2) There are no thermally accessible electronically excited states
  (3) Hindered rotations indicated by low frequency modes) are not
      treated as such but are treated as vibrations and this may
      case some error
  (4) All equations used are the standard statistical mechanics
      equations for an ideal gas
  (5) All vibrations are strinctly harmonic


------------
INNER ENERGY
------------

The inner energy is: U= E(el) + E(ZPE) + E(vib) + E(rot) + E(trans)
    E(el)   - is the total energy from the electronic structure calculation
              = E(kin-el) + E(nuc-el) + E(el-el) + E(nuc-nuc)
    E(ZPE)  - the the zero temperature vibrational energy from the frequency calculation
    E(vib)  - the the finite temperature correction to E(ZPE) due to population
              of excietd vibrational states
    E(rot)  - is the rotational thermal energy
    E(trans)- is the translational thermal energy

Summary of contributions to the inner energy U:
Electronic energy                ...   -250.78471808 Eh
Zero point energy                ...      0.14758134 Eh      92.61 kcal/mol
Thermal vibrational correction   ...      0.00320699 Eh       2.01 kcal/mol
Thermal rotational correction    ...      0.00141627 Eh       0.89 kcal/mol
Thermal translational correction ...      0.00141627 Eh       0.89 kcal/mol
-----------------------------------------------------------------------
Total thermal energy                   -250.63109720 Eh


Summary of corrections to the electronic energy:
(perhaps to be used in another calculation)
Total thermal correction                  0.00603954 Eh       3.79 kcal/mol
Non-thermal (ZPE) correction              0.14758134 Eh      92.61 kcal/mol
-----------------------------------------------------------------------
Total correction                          0.15362088 Eh      96.40 kcal/mol


--------
ENTHALPY
--------

The enthalpy is H = U + kB*T
                kB is Boltzmann's constant
Total free energy                 ...   -250.63109720 Eh 
Thermal Enthalpy correction       ...      0.00094421 Eh       0.59 kcal/mol
-----------------------------------------------------------------------
Total Enthalpy                    ...   -250.63015299 Eh


-------
ENTROPY
-------

The entropy contributions are T*S = T*(S(el)+S(vib)+S(rot)+S(trans)
     S(el)   - electronic entropy
     S(vib)  - vibrational entropy
     S(rot)  - rotational entropy
     S(trans)- translational entropy
The entropies will be listed as mutliplied by the temperature to get
units of energy

Electronic entropy                ...      0.00000000 Eh      0.00 kcal/mol
Vibrational entropy               ...      0.00566619 Eh      3.56 kcal/mol
Rotational entropy                ...      0.01145184 Eh      7.19 kcal/mol
Translational entropy             ...      0.01862670 Eh     11.69 kcal/mol
-----------------------------------------------------------------------
Final entropy term                ...      0.03574473 Eh     22.43 kcal/mol


CAUTION: The rotational entropy is not quite correctly treated here
         because it includes a symmetry number that is not yet correctly
         implemented in ORCA!
For a nonlinear molecule the correct rotational entropy is:
    S(rot) = R*(ln(qrot/sn)+1.5)
    R    = 8.31441 J/mol/K = 1.987191683e-3 kcal/mol/K
    qrot = 123929.6671518
    sn is the rotational symmetry number. We have assumed 3 here
       if it is different for your molecule then you should correct
       the printed rotational entropy by manually evaluating the equation
       as given above

For convenience we print out the resulting values for sn=1 - 12:
 sn= 1  qrot/sn=  123929.6672 T*S(rot)=     7.84 kcal/mol T*S(tot)=    23.08 kcal/mol
 sn= 2  qrot/sn=   61964.8336 T*S(rot)=     7.43 kcal/mol T*S(tot)=    22.67 kcal/mol
 sn= 3  qrot/sn=   41309.8891 T*S(rot)=     7.19 kcal/mol T*S(tot)=    22.43 kcal/mol
 sn= 4  qrot/sn=   30982.4168 T*S(rot)=     7.02 kcal/mol T*S(tot)=    22.26 kcal/mol
 sn= 5  qrot/sn=   24785.9334 T*S(rot)=     6.88 kcal/mol T*S(tot)=    22.13 kcal/mol
 sn= 6  qrot/sn=   20654.9445 T*S(rot)=     6.78 kcal/mol T*S(tot)=    22.02 kcal/mol
 sn= 7  qrot/sn=   17704.2382 T*S(rot)=     6.68 kcal/mol T*S(tot)=    21.93 kcal/mol
 sn= 8  qrot/sn=   15491.2084 T*S(rot)=     6.60 kcal/mol T*S(tot)=    21.85 kcal/mol
 sn= 9  qrot/sn=   13769.9630 T*S(rot)=     6.54 kcal/mol T*S(tot)=    21.78 kcal/mol
 sn=10  qrot/sn=   12392.9667 T*S(rot)=     6.47 kcal/mol T*S(tot)=    21.72 kcal/mol
 sn=11  qrot/sn=   11266.3334 T*S(rot)=     6.42 kcal/mol T*S(tot)=    21.66 kcal/mol
 sn=12  qrot/sn=   10327.4723 T*S(rot)=     6.36 kcal/mol T*S(tot)=    21.61 kcal/mol


-------------------
GIBBS FREE ENTHALPY
-------------------

The Gibbs free enthalpy is G = H - T*S

Total enthalpy                    ...   -250.63015299 Eh 
Total entropy correction          ...     -0.03574473 Eh    -22.43 kcal/mol
-----------------------------------------------------------------------
Final Gibbs free enthalpy         ...   -250.66589773 Eh

For completeness - the Gibbs free enthalpy minus the electronic energy
G-E(el)                           ...      0.11882035 Eh     74.56 kcal/mol


Timings for individual modules:

Sum of individual times         ...     1464.520 sec (=  24.409 min)
GTO integral calculation        ...       13.533 sec (=   0.226 min)   0.9 %
SCF iterations                  ...      211.953 sec (=   3.533 min)  14.5 %
SCF Gradient evaluation         ...      171.208 sec (=   2.853 min)  11.7 %
Geometry relaxation             ...        0.545 sec (=   0.009 min)   0.0 %
Analytical frequency calculation...     1067.280 sec (=  17.788 min)  72.9 %
                             ****ORCA TERMINATED NORMALLY****
TOTAL RUN TIME: 0 days 0 hours 24 minutes 26 seconds 335 msec
