
                                 *****************
                                 * O   R   C   A *
                                 *****************

           --- An Ab Initio, DFT and Semiempirical electronic structure package ---

                  #######################################################
                  #                        -***-                        #
                  #  Department of molecular theory and spectroscopy    #
                  #              Directorship: Frank Neese              #
                  # Max Planck Institute for Chemical Energy Conversion #
                  #                  D-45470 Muelheim/Ruhr              #
                  #                       Germany                       #
                  #                                                     #
                  #                  All rights reserved                #
                  #                        -***-                        #
                  #######################################################


                         Program Version 3.0.3 - RELEASE   -


 With contributions from (in alphabetic order):
   Ute Becker             : Parallelization
   Dmytro Bykov           : SCF Hessian
   Dmitry Ganyushin       : Spin-Orbit,Spin-Spin,Magnetic field MRCI
   Andreas Hansen         : Spin unrestricted coupled pair/coupled cluster methods
   Dimitrios Liakos       : Extrapolation schemes; parallel MDCI
   Robert Izsak           : Overlap fitted RIJCOSX, COSX-SCS-MP3
   Christian Kollmar      : KDIIS, OOCD, Brueckner-CCSD(T), CCSD density
   Simone Kossmann        : Meta GGA functionals, TD-DFT gradient, OOMP2, MP2 Hessian
   Taras Petrenko         : DFT Hessian,TD-DFT gradient, ASA and ECA modules, normal mode analysis, Resonance Raman, ABS, FL, XAS/XES, NRVS
   Christoph Reimann      : Effective Core Potentials
   Michael Roemelt        : Restricted open shell CIS
   Christoph Riplinger    : Improved optimizer, TS searches, QM/MM, DLPNO-CCSD
   Barbara Sandhoefer     : DKH picture change effects
   Igor Schapiro          : Molecular dynamics
   Kantharuban Sivalingam : CASSCF convergence, NEVPT2
   Boris Wezisla          : Elementary symmetry handling
   Frank Wennmohs         : Technical directorship


 We gratefully acknowledge several colleagues who have allowed us to
 interface, adapt or use parts of their codes:
   Stefan Grimme, W. Hujo, H. Kruse, T. Risthaus : VdW corrections, initial TS optimization,
                                                   DFT functionals, gCP
   Ed Valeev                                     : LibInt (2-el integral package), F12 methods
   Garnet Chan, S. Sharma, R. Olivares           : DMRG
   Ulf Ekstrom                                   : XCFun DFT Library
   Mihaly Kallay                                 : mrcc  (arbitrary order and MRCC methods)
   Andreas Klamt, Michael Diedenhofen            : otool_cosmo (COSMO solvation model)
   Frank Weinhold                                : gennbo (NPA and NBO analysis)
   Christopher J. Cramer and Donald G. Truhlar   : smd solvation model


 Your calculation uses the libint2 library for the computation of 2-el integrals
 For citations please refer to: http://libint.valeyev.net

 This ORCA versions uses:
   CBLAS   interface :  Fast vector & matrix operations
   LAPACKE interface :  Fast linear algebra routines
   SCALAPACK package :  Parallel linear algebra routines


Your calculation utilizes the basis: Ahlrichs-TZV
Cite in your paper:
H - Kr: A. Schaefer, H. Horn and R. Ahlrichs, J. Chem. Phys. 97, 2571 (1992).

The def2-TZV basis will be loaded
Cite in your paper:
 	F. Weigend, R. Ahlrichs, Phys. Chem. Chem. Phys. 2005, 7, 3297.

================================================================================
                                        WARNINGS
                       Please study these warnings very carefully!
================================================================================
Now building the actual basis set
WARNING: Geometry optimizations can change the point-group symmetry!

WARNING: Geometry Optimization
  ===> : Switching off AutoStart
         For restart on a previous wavefunction, please use MOREAD


INFO   : the flag for use of LIBINT has been found!

================================================================================
                                       INPUT FILE
================================================================================
NAME = 0354_+.inp
|  1> ! NORI PBE0 def2-TZVP UseSym TightOPT Freq TightSCF Grid3 FinalGrid5 XYZFile
|  2> % pal
|  3>     nprocs 8
|  4> end
|  5> %method
|  6>     SymThresh 5.0e-2
|  7> end
|  8> % geom 
|  9>     MaxIter 10
| 10> end 
| 11> % maxcore 2000
| 12> % output
| 13>     printlevel mini
| 14>     print[ P_Basis ] 0
| 15>     print[ P_SCFInfo ] 1
| 16>     print[ P_SCFIterInfo ] 1
| 17>     print[ P_OrbEn ] 0
| 18>     print[ P_Cartesian ] 0
| 19> end
| 20> % elprop
| 21>     Dipole false
| 22> end
| 23> *xyz 1 1
| 24>  C        0.8673523301     0.0890828115    -0.2302513668 
| 25>  C        2.3475355780     0.0478701207     0.0519644552 
| 26>  C        2.7047586756    -0.0263692664     1.5167016177 
| 27>  C        3.2467596577    -0.6547574870    -0.9278200126 
| 28>  C        3.2166675195     0.8360512727    -0.8842973148 
| 29>  N        4.4064085380     1.5452469043    -0.3531049159 
| 30>  H        0.6607533864     0.1682394570    -1.2994148915 
| 31>  H        0.3945753044     0.9355271565     0.2732797712 
| 32>  H        0.3931699223    -0.8252093696     0.1330205619 
| 33>  H        3.7738530547    -0.1752669409     1.7078929797 
| 34>  H        2.2101207734    -0.8900689896     1.9652112332 
| 35>  H        2.3659768992     0.8597924140     2.0606651908 
| 36>  H        4.1207692074    -1.1612288533    -0.5298912112 
| 37>  H        2.8228355276    -1.1257546812    -1.8060203646 
| 38>  H        2.7721267888     1.3968687575    -1.6968500270 
| 39>  H        4.7200643426     1.1052987950     0.5155053124 
| 40>  H        4.1931610120     2.5223752589    -0.1388867879 
| 41>  H        5.1854214820     1.5286426402    -1.0163642298 
| 42> *
| 43> 
| 44>                          ****END OF INPUT****
================================================================================

The point group is C1 - hence turning off symmetry
If this is a round-off problem, please increase the symmetry
        detection tolerance (%method SymThresh)


                       *****************************
                       * Geometry Optimization Run *
                       *****************************

Geometry optimization settings:
Update method            Update   .... BFGS
Choice of coordinates    CoordSys .... Redundant Internals
Initial Hessian          InHess   .... Almoef's Model

Convergence Tolerances:
Energy Change            TolE     ....  1.0000e-06 Eh
Max. Gradient            TolMAXG  ....  1.0000e-04 Eh/bohr
RMS Gradient             TolRMSG  ....  3.0000e-05 Eh/bohr
Max. Displacement        TolMAXD  ....  1.0000e-03 bohr
RMS Displacement         TolRMSD  ....  6.0000e-04 bohr

------------------------------------------------------------------------------
                        ORCA OPTIMIZATION COORDINATE SETUP
------------------------------------------------------------------------------

The optimization will be done in new redundant internal coordinates
Making redundant internal coordinates   ...  (new redundants) done
Evaluating the initial hessian          ...  (Almloef) done
Evaluating the coordinates              ...  done
Calculating the B-matrix                .... done
Calculating the G-matrix                .... done
Diagonalizing the G-matrix              .... done
The first mode is                       ....   57
The number of degrees of freedom        ....   48

    -----------------------------------------------------------------
                    Redundant Internal Coordinates


    -----------------------------------------------------------------
         Definition                    Initial Value    Approx d2E/dq
    -----------------------------------------------------------------
      1. B(C   1,C   0)                  1.5074         0.405898   
      2. B(C   2,C   1)                  1.5095         0.402802   
      3. B(C   3,C   1)                  1.5041         0.410890   
      4. B(C   4,C   3)                  1.4917         0.429939   
      5. B(C   4,C   1)                  1.5011         0.415467   
      6. B(N   5,C   4)                  1.4834         0.397000   
      7. B(H   6,C   0)                  1.0918         0.357707   
      8. B(H   7,C   0)                  1.0925         0.356824   
      9. B(H   8,C   0)                  1.0921         0.357295   
     10. B(H   9,C   2)                  1.0962         0.351971   
     11. B(H  10,C   2)                  1.0917         0.357861   
     12. B(H  11,C   2)                  1.0936         0.355374   
     13. B(H  12,C   3)                  1.0857         0.365828   
     14. B(H  13,C   3)                  1.0830         0.369545   
     15. B(H  14,C   4)                  1.0828         0.369803   
     16. B(H  15,N   5)                  1.0229         0.412611   
     17. B(H  16,N   5)                  1.0228         0.412814   
     18. B(H  17,N   5)                  1.0233         0.412143   
     19. A(C   1,C   0,H   7)          111.0897         0.328285   
     20. A(H   6,C   0,H   7)          108.2571         0.290119   
     21. A(H   7,C   0,H   8)          107.9039         0.290066   
     22. A(C   1,C   0,H   8)          109.9486         0.328356   
     23. A(H   6,C   0,H   8)          107.7138         0.290179   
     24. A(C   1,C   0,H   6)          111.7850         0.328419   
     25. A(C   2,C   1,C   3)          117.8814         0.374148   
     26. A(C   3,C   1,C   4)           59.5237         0.376153   
     27. A(C   2,C   1,C   4)          119.6063         0.374864   
     28. A(C   0,C   1,C   4)          115.9394         0.375360   
     29. A(C   0,C   1,C   2)          114.5438         0.373360   
     30. A(C   0,C   1,C   3)          118.5464         0.374643   
     31. A(H  10,C   2,H  11)          107.2398         0.289953   
     32. A(H   9,C   2,H  11)          108.9919         0.289200   
     33. A(C   1,C   2,H  11)          111.6845         0.327651   
     34. A(H   9,C   2,H  10)          105.2342         0.289516   
     35. A(C   1,C   2,H   9)          113.9987         0.327132   
     36. A(C   1,C   2,H  10)          109.2895         0.328028   
     37. A(H  12,C   3,H  13)          114.1709         0.292752   
     38. A(C   4,C   3,H  13)          116.7699         0.333351   
     39. A(C   1,C   3,H  13)          119.8277         0.330858   
     40. A(C   4,C   3,H  12)          118.1475         0.332793   
     41. A(C   1,C   3,H  12)          117.4160         0.330305   
     42. A(C   1,C   3,C   4)           60.1376         0.378387   
     43. A(N   5,C   4,H  14)          110.5103         0.327046   
     44. A(C   3,C   4,H  14)          120.2658         0.333390   
     45. A(C   1,C   4,H  14)          120.1537         0.331503   
     46. A(C   3,C   4,N   5)          118.1669         0.373781   
     47. A(C   1,C   4,N   5)          119.4757         0.371582   
     48. A(C   1,C   4,C   3)           60.3387         0.379114   
     49. A(C   4,N   5,H  15)          110.1427         0.330177   
     50. A(H  16,N   5,H  17)          108.0583         0.298663   
     51. A(H  15,N   5,H  17)          108.0580         0.298640   
     52. A(C   4,N   5,H  17)          111.7600         0.330115   
     53. A(H  15,N   5,H  16)          107.2749         0.298717   
     54. A(C   4,N   5,H  16)          111.3771         0.330204   
     55. D(C   3,C   1,C   0,H   7)   -156.0372         0.013059   
     56. D(C   2,C   1,C   0,H   8)    -61.8875         0.013059   
     57. D(C   4,C   1,C   0,H   8)    152.4142         0.013059   
     58. D(C   4,C   1,C   0,H   6)     32.8341         0.013059   
     59. D(C   3,C   1,C   0,H   8)     84.5893         0.013059   
     60. D(C   2,C   1,C   0,H   7)     57.4860         0.013059   
     61. D(C   4,C   1,C   0,H   7)    -88.2123         0.013059   
     62. D(C   3,C   1,C   0,H   6)    -34.9908         0.013059   
     63. D(C   2,C   1,C   0,H   6)    178.5324         0.013059   
     64. D(H  10,C   2,C   1,C   3)    -90.9919         0.012867   
     65. D(H   9,C   2,C   1,C   3)     26.4309         0.012867   
     66. D(H  11,C   2,C   1,C   3)    150.5133         0.012867   
     67. D(H  11,C   2,C   1,C   4)     81.5723         0.012867   
     68. D(H  10,C   2,C   1,C   4)   -159.9329         0.012867   
     69. D(H   9,C   2,C   1,C   0)    173.1430         0.012867   
     70. D(H  11,C   2,C   1,C   0)    -62.7745         0.012867   
     71. D(H  10,C   2,C   1,C   0)     55.7203         0.012867   
     72. D(H   9,C   2,C   1,C   4)    -42.5102         0.012867   
     73. D(H  13,C   3,C   1,C   4)   -105.6339         0.013372   
     74. D(H  13,C   3,C   1,C   0)     -0.7036         0.013372   
     75. D(H  12,C   3,C   1,C   4)    108.3595         0.013372   
     76. D(H  12,C   3,C   1,C   2)     -1.3453         0.013372   
     77. D(H  13,C   3,C   1,C   2)    144.6613         0.013372   
     78. D(C   4,C   3,C   1,C   2)   -109.7048         0.013372   
     79. D(C   4,C   3,C   1,C   0)    104.9303         0.013372   
     80. D(H  12,C   3,C   1,C   0)   -146.7102         0.013372   
     81. D(N   5,C   4,C   1,C   2)     -0.7440         0.013664   
     82. D(N   5,C   4,C   1,C   0)    143.1266         0.013664   
     83. D(C   3,C   4,C   1,C   2)    106.8399         0.013664   
     84. D(N   5,C   4,C   1,C   3)   -107.5839         0.013664   
     85. D(C   3,C   4,C   1,C   0)   -109.2895         0.013664   
     86. D(H  14,C   4,C   3,H  13)      0.9636         0.014613   
     87. D(H  14,C   4,C   3,H  12)    143.1517         0.014613   
     88. D(H  14,C   4,C   3,C   1)   -109.6921         0.014613   
     89. D(N   5,C   4,C   3,H  13)   -139.6270         0.014613   
     90. D(N   5,C   4,C   3,H  12)      2.5612         0.014613   
     91. D(N   5,C   4,C   3,C   1)    109.7174         0.014613   
     92. D(C   1,C   4,C   3,H  13)    110.6557         0.014613   
     93. D(C   1,C   4,C   3,H  12)   -107.1562         0.014613   
     94. D(H  14,C   4,C   1,C   3)    109.8735         0.013664   
     95. D(H  14,C   4,C   1,C   2)   -143.2866         0.013664   
     96. D(H  14,C   4,C   1,C   0)      0.5841         0.013664   
     97. D(H  17,N   5,C   4,H  14)    -70.1516         0.014407   
     98. D(H  17,N   5,C   4,C   3)     74.0146         0.014407   
     99. D(H  17,N   5,C   4,C   1)    144.0057         0.014407   
    100. D(H  16,N   5,C   4,H  14)     50.8239         0.014407   
    101. D(H  16,N   5,C   4,C   3)   -165.0098         0.014407   
    102. D(H  16,N   5,C   4,C   1)    -95.0188         0.014407   
    103. D(H  15,N   5,C   4,H  14)    169.7216         0.014407   
    104. D(H  15,N   5,C   4,C   3)    -46.1122         0.014407   
    105. D(H  15,N   5,C   4,C   1)     23.8789         0.014407   
    -----------------------------------------------------------------

Number of atoms                         .... 18
Number of degrees of freedom            .... 105

         *************************************************************
         *                GEOMETRY OPTIMIZATION CYCLE   1            *
         *************************************************************


           ************************************************************
           *        Program running with 8 parallel MPI-processes     *
           *              working on a common directory               *
           ************************************************************
           ************************************************************
           *              Shut down parallel processing               *
           ************************************************************


           ************************************************************
           *        Program running with 8 parallel MPI-processes     *
           *              working on a common directory               *
           ************************************************************
------------
SCF SETTINGS
------------
Hamiltonian:
 Density Functional     Method          .... DFT(GTOs)
 Exchange Functional    Exchange        .... PBE
   PBE kappa parameter  XKappa          ....  0.804000
 Correlation Functional Correlation     .... PBE
 LDA part of GGA corr.  LDAOpt          .... PW91-LDA
 Gradients option       PostSCFGGA      .... off
 Hybrid DFT is turned on
   Fraction HF Exchange ScalHFX         ....  0.250000
   Scaling of DF-GGA-X  ScalDFX         ....  0.750000
   Scaling of DF-GGA-C  ScalDFC         ....  1.000000
   Scaling of DF-LDA-C  ScalLDAC        ....  1.000000
   Perturbative correction              ....  0.000000
   NL short-range parameter             ....  6.900000


General Settings:
 Integral files         IntName         .... 0354_+
 Hartree-Fock type      HFTyp           .... RHF
 Total Charge           Charge          ....    1
 Multiplicity           Mult            ....    1
 Number of Electrons    NEL             ....   48
 Basis Dimension        Dim             ....  258
 Nuclear Repulsion      ENuc            ....    263.4043144903 Eh

Convergence Acceleration:
 DIIS                   CNVDIIS         .... on
   Start iteration      DIISMaxIt       ....    12
   Startup error        DIISStart       ....  0.200000
   # of expansion vecs  DIISMaxEq       ....     5
   Bias factor          DIISBfac        ....   1.050
   Max. coefficient     DIISMaxC        ....  10.000
 Newton-Raphson         CNVNR           .... off
 SOSCF                  CNVSOSCF        .... on
   Start iteration      SOSCFMaxIt      ....   150
   Startup grad/error   SOSCFStart      ....  0.003300
 Level Shifting         CNVShift        .... on
   Level shift para.    LevelShift      ....    0.2500
   Turn off err/grad.   ShiftErr        ....    0.0010
 Zerner damping         CNVZerner       .... off
 Static damping         CNVDamp         .... on
   Fraction old density DampFac         ....    0.7000
   Max. Damping (<1)    DampMax         ....    0.9800
   Min. Damping (>=0)   DampMin         ....    0.0000
   Turn off err/grad.   DampErr         ....    0.1000
 Fernandez-Rico         CNVRico         .... off

SCF Procedure:
 Maximum # iterations   MaxIter         ....   125
 SCF integral mode      SCFMode         .... Direct
   Integral package                     .... LIBINT
 Reset frequeny         DirectResetFreq ....    20
 Integral Threshold     Thresh          ....  2.500e-11 Eh
 Primitive CutOff       TCut            ....  2.500e-12 Eh

Convergence Tolerance:
 Convergence Check Mode ConvCheckMode   .... Total+1el-Energy
 Energy Change          TolE            ....  1.000e-08 Eh
 1-El. energy change                    ....  1.000e-05 Eh
 Orbital Gradient       TolG            ....  1.000e-05
 Orbital Rotation angle TolX            ....  1.000e-05
 DIIS Error             TolErr          ....  5.000e-07


Diagonalization of the overlap matrix:
Smallest eigenvalue                        ... 1.332e-04
Time for diagonalization                   ...    0.019 sec
Threshold for overlap eigenvalues          ... 1.000e-08
Number of eigenvalues below threshold      ... 0
Time for construction of square roots      ...    0.007 sec
Total time needed                          ...    0.026 sec

-------------------
DFT GRID GENERATION
-------------------

General Integration Accuracy     IntAcc      ...  4.340
Radial Grid Type                 RadialGrid  ... Gauss-Chebyshev
Angular Grid (max. acc.)         AngularGrid ... Lebedev-194
Angular grid pruning method      GridPruning ... 3 (G Style)
Weight generation scheme         WeightScheme... Becke
Basis function cutoff            BFCut       ...    1.0000e-11
Integration weight cutoff        WCut        ...    1.0000e-14
Grids for H and He will be reduced by one unit

# of grid points (after initial pruning)     ...  38064 (   0.0 sec)
# of grid points (after weights+screening)   ...  34657 (   0.0 sec)
nearest neighbour list constructed           ...    0.0 sec
Grid point re-assignment to atoms done       ...    0.0 sec
Grid point division into batches done        ...    0.1 sec
Reduced shell lists constructed in    0.1 sec

Total number of grid points                  ...    34657
Total number of batches                      ...      550
Average number of points per batch           ...       63
Average number of grid points per atom       ...     1925
Average number of shells per batch           ...    96.81 (84.92%)
Average number of basis functions per batch  ...   228.99 (88.75%)
Average number of large shells per batch     ...    81.40 (84.08%)
Average number of large basis fcns per batch ...   194.34 (84.87%)
Maximum spatial batch extension              ...   2.41,  2.09,  2.36 au
Average spatial batch extension              ...   0.15,  0.15,  0.15 au

Time for grid setup =    0.191 sec

Loading Hartree-Fock densities                     ... done
Calculating cut-offs                               ... done
Setting up the integral package                    ... done
Initializing the effective Hamiltonian             ... done
Starting the Coulomb interaction                   ... done (   0.0 sec)
Reading the grid                                   ... done
Mapping shells                                     ... done
Starting the XC term evaluation                    ... done (   0.2 sec)
  promolecular density results
     # of electrons  =     48.994156887
     EX              =    -35.732996861
     EC              =     -1.605944017
     EX+EC           =    -37.338940877
Transforming the Hamiltonian                       ... done (   0.0 sec)
Diagonalizing the Hamiltonian                      ... done (   0.0 sec)
Back transforming the eigenvectors                 ... done (   0.0 sec)
Now organizing SCF variables                       ... done
--------------
SCF ITERATIONS
--------------
ITER       Energy         Delta-E        Max-DP      RMS-DP      [F,P]     Damp
               ***  Starting incremental Fock matrix formation  ***
  0   -251.8500853055   0.000000000000 0.03906065  0.00107915  0.1765194 0.7000
  1   -251.9299993746  -0.079914069052 0.04230186  0.00086574  0.0929361 0.7000
                               ***Turning on DIIS***
  2   -251.9646808618  -0.034681487286 0.08551180  0.00166394  0.0377975 0.0000
  3   -252.0137158470  -0.049034985185 0.01958828  0.00049321  0.0508810 0.0000
  4   -252.0270049744  -0.013289127357 0.00569804  0.00016058  0.0081428 0.0000
                      *** Initiating the SOSCF procedure ***
                           *** Shutting down DIIS ***
                      *** Re-Reading the Fockian *** 
                      *** Removing any level shift *** 
ITER      Energy       Delta-E        Grad      Rot      Max-DP    RMS-DP
  5   -252.02750799  -0.0005030110  0.000640  0.000640  0.001837  0.000062
               *** Restarting incremental Fock matrix formation ***
  6   -252.02754512  -0.0000371351  0.000301  0.000741  0.001350  0.000040
  7   -252.02754667  -0.0000015506  0.000201  0.000200  0.000314  0.000009
  8   -252.02754856  -0.0000018920  0.000034  0.000076  0.000144  0.000004
  9   -252.02754857  -0.0000000074  0.000025  0.000022  0.000034  0.000001
 10   -252.02754861  -0.0000000387  0.000003  0.000007  0.000016  0.000001
                 **** Energy Check signals convergence ****
              ***Rediagonalizing the Fockian in SOSCF/NRSCF***

               *****************************************************
               *                     SUCCESS                       *
               *           SCF CONVERGED AFTER  11 CYCLES          *
               *****************************************************

Setting up the final grid:

General Integration Accuracy     IntAcc      ...  5.010
Radial Grid Type                 RadialGrid  ... Gauss-Chebyshev
Angular Grid (max. acc.)         AngularGrid ... Lebedev-434
Angular grid pruning method      GridPruning ... 3 (G Style)
Weight generation scheme         WeightScheme... Becke
Basis function cutoff            BFCut       ...    1.0000e-11
Integration weight cutoff        WCut        ...    1.0000e-14
Grids for H and He will be reduced by one unit

# of grid points (after initial pruning)     ... 144384 (   0.0 sec)
# of grid points (after weights+screening)   ... 129903 (   0.1 sec)
nearest neighbour list constructed           ...    0.0 sec
Grid point re-assignment to atoms done       ...    0.0 sec
Grid point division into batches done        ...    0.9 sec
Reduced shell lists constructed in    1.1 sec

Total number of grid points                  ...   129903
Total number of batches                      ...     2040
Average number of points per batch           ...       63
Average number of grid points per atom       ...     7217
Average number of shells per batch           ...    95.23 (83.54%)
Average number of basis functions per batch  ...   225.82 (87.53%)
Average number of large shells per batch     ...    78.46 (82.39%)
Average number of large basis fcns per batch ...   186.27 (82.49%)
Maximum spatial batch extension              ...   2.37,  2.03,  3.42 au
Average spatial batch extension              ...   0.10,  0.10,  0.10 au

Final grid set up in    1.3 sec
Final integration                            ... done (   0.6 sec)
Change in XC energy                          ...     0.000416378
Integrated number of electrons               ...    47.999994486
Previous integrated no of electrons          ...    48.000115480
Total Energy       :         -252.02713223 Eh           -6858.00692 eV
  Last Energy change         ...    2.2970e-10  Tolerance :   1.0000e-08
  Last MAX-Density change    ...    3.3293e-06  Tolerance :   1.0000e-07
             **** THE GBW FILE WAS UPDATED (0354_+.gbw) ****
             **** DENSITY FILE WAS UPDATED (0354_+.scfp.tmp) ****
             **** ENERGY FILE WAS UPDATED (0354_+.en.tmp) ****
Total SCF time: 0 days 0 hours 0 min 56 sec 
           ************************************************************
           *              Shut down parallel processing               *
           ************************************************************

-------------------------   --------------------
FINAL SINGLE POINT ENERGY      -252.027132231214
-------------------------   --------------------



           ************************************************************
           *        Program running with 8 parallel MPI-processes     *
           *              working on a common directory               *
           ************************************************************
------------------------------------------------------------------------------
                         ORCA SCF GRADIENT CALCULATION
------------------------------------------------------------------------------

Gradient of the Kohn-Sham DFT energy:
Kohn-Sham wavefunction type      ... RKS
Hartree-Fock exchange scaling    ...    0.250
Number of operators              ...    1
Number of atoms                  ...   18
Basis set dimensions             ...  258
Integral neglect threshold       ... 2.5e-11
Integral primitive cutoff        ... 2.5e-12

Nuclear repulsion gradient       ... done
One Electron Gradient            ... done
Pre-screening matrix             ... done
Starting the two electron gradient:
Two electron gradient done
Exchange-correlation gradient    ... done

------------------
CARTESIAN GRADIENT
------------------

   1   C   :    0.000013385    0.000058345    0.000229227
   2   C   :    0.000011598    0.000005902   -0.000006477
   3   C   :    0.000050712   -0.000181483    0.000048146
   4   C   :    0.000117723    0.000081801   -0.000009449
   5   C   :    0.000006063    0.000067759   -0.000298859
   6   N   :   -0.000130886    0.000276851    0.000104142
   7   H   :    0.000029053   -0.000085191    0.000002511
   8   H   :    0.000035388    0.000012807   -0.000074862
   9   H   :   -0.000064158    0.000081480   -0.000105317
  10   H   :   -0.000213279    0.000080772   -0.000064496
  11   H   :   -0.000019976    0.000061192    0.000004087
  12   H   :    0.000131282    0.000098356   -0.000017124
  13   H   :   -0.000166591   -0.000020690    0.000101742
  14   H   :    0.000005039   -0.000141578    0.000021769
  15   H   :    0.000105697   -0.000113246   -0.000003628
  16   H   :    0.000141223   -0.000150299   -0.000062738
  17   H   :    0.000019830    0.000012473   -0.000000474
  18   H   :   -0.000072105   -0.000145253    0.000131801

Norm of the cartesian gradient     ...    0.000782084
RMS gradient                       ...    0.000106428
MAX gradient                       ...    0.000298859

-------
TIMINGS
-------

Total SCF gradient time            ...       27.039 sec

One electron gradient       ....       0.113 sec  (  0.4%)
Prescreening matrices       ....       0.227 sec  (  0.8%)
Two electron gradient       ....      22.919 sec  ( 84.8%)
XC gradient                 ....       3.250 sec  ( 12.0%)
           ************************************************************
           *              Shut down parallel processing               *
           ************************************************************
------------------------------------------------------------------------------
                         ORCA GEOMETRY RELAXATION STEP
------------------------------------------------------------------------------

Reading the OPT-File                    .... done
Getting information on internals        .... done
Copying old internal coords+grads       .... done
Making the new internal coordinates     .... (new redundants).... done
Validating the new internal coordinates .... (new redundants).... done
Calculating the B-matrix                .... done
Calculating the G,G- and P matrices     .... done
Transforming gradient to internals      .... done
Projecting the internal gradient        .... done
Number of atoms                         ....  18
Number of internal coordinates          .... 105
Current Energy                          ....  -252.027132231 Eh
Current gradient norm                   ....     0.000782084 Eh/bohr
Maximum allowed component of the step   ....  0.300
Current trust radius                    ....  0.300
Evaluating the initial hessian          ....  (Almloef) done
Projecting the Hessian                  .... done
Forming the augmented Hessian           .... done
Diagonalizing the augmented Hessian     .... done
Last element of RFO vector              ....  0.999974666
Lowest eigenvalues of augmented Hessian:
 -0.000002174  0.012867291  0.013058930  0.014406797  0.029645219
Length of the computed step             ....  0.007118340
The final length of the internal step   ....  0.007118340
Converting the step to cartesian space:
 Initial RMS(Int)=    0.0006946789
Transforming coordinates:
 Iter   0:  RMS(Cart)=    0.0011739942 RMS(Int)=    0.0006946701
 Iter   1:  RMS(Cart)=    0.0000009661 RMS(Int)=    0.0000006946
 Iter   2:  RMS(Cart)=    0.0000000021 RMS(Int)=    0.0000000014
done
Storing new coordinates                 .... done

                                .--------------------.
          ----------------------|Geometry convergence|---------------------
          Item                value                 Tolerance   Converged
          -----------------------------------------------------------------
          RMS gradient        0.00006496            0.00003000      NO
          MAX gradient        0.00020771            0.00010000      NO
          RMS step            0.00069468            0.00060000      NO
          MAX step            0.00249089            0.00100000      NO
          ....................................................
          Max(Bonds)      0.0003      Max(Angles)    0.04
          Max(Dihed)        0.14      Max(Improp)    0.00
          -----------------------------------------------------------------

The optimization has not yet converged - more geometry cycles are needed


    ---------------------------------------------------------------------------
                         Redundant Internal Coordinates
                            (Angstroem and degrees)

        Definition                    Value    dE/dq     Step     New-Value
    ----------------------------------------------------------------------------
     1. B(C   1,C   0)                1.5074 -0.000033  0.0000    1.5075   
     2. B(C   2,C   1)                1.5095  0.000073 -0.0001    1.5094   
     3. B(C   3,C   1)                1.5041  0.000100 -0.0001    1.5039   
     4. B(C   4,C   3)                1.4917 -0.000041  0.0001    1.4918   
     5. B(C   4,C   1)                1.5011 -0.000013  0.0000    1.5011   
     6. B(N   5,C   4)                1.4834  0.000163 -0.0002    1.4832   
     7. B(H   6,C   0)                1.0918  0.000090 -0.0001    1.0917   
     8. B(H   7,C   0)                1.0925  0.000029 -0.0000    1.0924   
     9. B(H   8,C   0)                1.0921  0.000130 -0.0002    1.0919   
    10. B(H   9,C   2)                1.0962  0.000118 -0.0002    1.0960   
    11. B(H  10,C   2)                1.0917  0.000018 -0.0000    1.0917   
    12. B(H  11,C   2)                1.0936  0.000153 -0.0002    1.0934   
    13. B(H  12,C   3)                1.0857  0.000185 -0.0003    1.0854   
    14. B(H  13,C   3)                1.0830  0.000113 -0.0002    1.0828   
    15. B(H  14,C   4)                1.0828  0.000148 -0.0002    1.0826   
    16. B(H  15,N   5)                1.0229 -0.000195  0.0002    1.0232   
    17. B(H  16,N   5)                1.0228  0.000022 -0.0000    1.0228   
    18. B(H  17,N   5)                1.0233  0.000208 -0.0003    1.0230   
    19. A(C   1,C   0,H   7)          111.09  0.000108   -0.02    111.07   
    20. A(H   6,C   0,H   7)          108.26 -0.000025   -0.00    108.26   
    21. A(H   7,C   0,H   8)          107.90 -0.000055    0.02    107.92   
    22. A(C   1,C   0,H   8)          109.95 -0.000046    0.01    109.96   
    23. A(H   6,C   0,H   8)          107.71  0.000032   -0.01    107.71   
    24. A(C   1,C   0,H   6)          111.78 -0.000017   -0.00    111.78   
    25. A(C   2,C   1,C   3)          117.88  0.000050   -0.01    117.87   
    26. A(C   3,C   1,C   4)           59.52 -0.000034    0.00     59.53   
    27. A(C   2,C   1,C   4)          119.61  0.000080   -0.03    119.58   
    28. A(C   0,C   1,C   4)          115.94 -0.000000    0.01    115.95   
    29. A(C   0,C   1,C   2)          114.54 -0.000085    0.02    114.56   
    30. A(C   0,C   1,C   3)          118.55  0.000032   -0.01    118.54   
    31. A(H  10,C   2,H  11)          107.24 -0.000026    0.02    107.26   
    32. A(H   9,C   2,H  11)          108.99 -0.000001   -0.02    108.97   
    33. A(C   1,C   2,H  11)          111.68 -0.000082    0.01    111.69   
    34. A(H   9,C   2,H  10)          105.23 -0.000140    0.03    105.27   
    35. A(C   1,C   2,H   9)          114.00  0.000200   -0.04    113.96   
    36. A(C   1,C   2,H  10)          109.29  0.000034    0.00    109.29   
    37. A(H  12,C   3,H  13)          114.17 -0.000023    0.01    114.18   
    38. A(C   4,C   3,H  13)          116.77 -0.000023    0.02    116.79   
    39. A(C   1,C   3,H  13)          119.83  0.000028   -0.02    119.81   
    40. A(C   4,C   3,H  12)          118.15  0.000018    0.01    118.16   
    41. A(C   1,C   3,H  12)          117.42  0.000024   -0.02    117.40   
    42. A(C   1,C   3,C   4)           60.14 -0.000018    0.00     60.14   
    43. A(N   5,C   4,H  14)          110.51  0.000041   -0.00    110.51   
    44. A(C   3,C   4,H  14)          120.27 -0.000017    0.01    120.27   
    45. A(C   1,C   4,H  14)          120.15 -0.000011   -0.00    120.15   
    46. A(C   3,C   4,N   5)          118.17 -0.000048    0.02    118.19   
    47. A(C   1,C   4,N   5)          119.48 -0.000026   -0.01    119.47   
    48. A(C   1,C   4,C   3)           60.34  0.000052   -0.01     60.33   
    49. A(C   4,N   5,H  15)          110.14 -0.000126    0.03    110.17   
    50. A(H  16,N   5,H  17)          108.06  0.000007   -0.01    108.05   
    51. A(H  15,N   5,H  17)          108.06  0.000041   -0.00    108.05   
    52. A(C   4,N   5,H  17)          111.76  0.000020   -0.00    111.76   
    53. A(H  15,N   5,H  16)          107.27  0.000048   -0.01    107.27   
    54. A(C   4,N   5,H  16)          111.38  0.000014   -0.00    111.37   
    55. D(C   3,C   1,C   0,H   7)   -156.04  0.000002   -0.03   -156.07   
    56. D(C   2,C   1,C   0,H   8)    -61.89  0.000022   -0.04    -61.93   
    57. D(C   4,C   1,C   0,H   8)    152.41  0.000002   -0.04    152.37   
    58. D(C   4,C   1,C   0,H   6)     32.83  0.000003   -0.04     32.79   
    59. D(C   3,C   1,C   0,H   8)     84.59  0.000033   -0.05     84.54   
    60. D(C   2,C   1,C   0,H   7)     57.49 -0.000009   -0.03     57.46   
    61. D(C   4,C   1,C   0,H   7)    -88.21 -0.000028   -0.03    -88.24   
    62. D(C   3,C   1,C   0,H   6)    -34.99  0.000034   -0.05    -35.04   
    63. D(C   2,C   1,C   0,H   6)    178.53  0.000023   -0.04    178.49   
    64. D(H  10,C   2,C   1,C   3)    -90.99 -0.000035    0.12    -90.88   
    65. D(H   9,C   2,C   1,C   3)     26.43 -0.000064    0.14     26.57   
    66. D(H  11,C   2,C   1,C   3)    150.51  0.000025    0.08    150.60   
    67. D(H  11,C   2,C   1,C   4)     81.57  0.000018    0.09     81.66   
    68. D(H  10,C   2,C   1,C   4)   -159.93 -0.000042    0.12   -159.81   
    69. D(H   9,C   2,C   1,C   0)    173.14 -0.000059    0.13    173.27   
    70. D(H  11,C   2,C   1,C   0)    -62.77  0.000030    0.08    -62.70   
    71. D(H  10,C   2,C   1,C   0)     55.72 -0.000030    0.11     55.83   
    72. D(H   9,C   2,C   1,C   4)    -42.51 -0.000071    0.14    -42.37   
    73. D(H  13,C   3,C   1,C   4)   -105.63  0.000048   -0.03   -105.67   
    74. D(H  13,C   3,C   1,C   0)     -0.70  0.000019   -0.01     -0.71   
    75. D(H  12,C   3,C   1,C   4)    108.36  0.000004    0.02    108.38   
    76. D(H  12,C   3,C   1,C   2)     -1.35 -0.000058    0.05     -1.30   
    77. D(H  13,C   3,C   1,C   2)    144.66 -0.000015   -0.01    144.65   
    78. D(C   4,C   3,C   1,C   2)   -109.70 -0.000063    0.03   -109.68   
    79. D(C   4,C   3,C   1,C   0)    104.93 -0.000029    0.02    104.95   
    80. D(H  12,C   3,C   1,C   0)   -146.71 -0.000025    0.04   -146.67   
    81. D(N   5,C   4,C   1,C   2)     -0.74  0.000039   -0.02     -0.77   
    82. D(N   5,C   4,C   1,C   0)    143.13 -0.000001   -0.01    143.12   
    83. D(C   3,C   4,C   1,C   2)    106.84  0.000012    0.00    106.84   
    84. D(N   5,C   4,C   1,C   3)   -107.58  0.000027   -0.02   -107.61   
    85. D(C   3,C   4,C   1,C   0)   -109.29 -0.000028    0.02   -109.27   
    86. D(H  14,C   4,C   3,H  13)      0.96  0.000021   -0.02      0.94   
    87. D(H  14,C   4,C   3,H  12)    143.15 -0.000030    0.03    143.19   
    88. D(H  14,C   4,C   3,C   1)   -109.69 -0.000015    0.01   -109.68   
    89. D(N   5,C   4,C   3,H  13)   -139.63  0.000045   -0.06   -139.68   
    90. D(N   5,C   4,C   3,H  12)      2.56 -0.000007    0.00      2.56   
    91. D(N   5,C   4,C   3,C   1)    109.72  0.000008   -0.02    109.70   
    92. D(C   1,C   4,C   3,H  13)    110.66  0.000037   -0.03    110.62   
    93. D(C   1,C   4,C   3,H  12)   -107.16 -0.000015    0.02   -107.13   
    94. D(H  14,C   4,C   1,C   3)    109.87  0.000005    0.01    109.88   
    95. D(H  14,C   4,C   1,C   2)   -143.29  0.000017    0.01   -143.28   
    96. D(H  14,C   4,C   1,C   0)      0.58 -0.000023    0.02      0.61   
    97. D(H  17,N   5,C   4,H  14)    -70.15 -0.000003   -0.01    -70.16   
    98. D(H  17,N   5,C   4,C   3)     74.01 -0.000042    0.02     74.04   
    99. D(H  17,N   5,C   4,C   1)    144.01 -0.000008    0.02    144.02   
   100. D(H  16,N   5,C   4,H  14)     50.82  0.000030   -0.03     50.80   
   101. D(H  16,N   5,C   4,C   3)   -165.01 -0.000009    0.01   -165.00   
   102. D(H  16,N   5,C   4,C   1)    -95.02  0.000025    0.00    -95.02   
   103. D(H  15,N   5,C   4,H  14)    169.72  0.000017   -0.02    169.70   
   104. D(H  15,N   5,C   4,C   3)    -46.11 -0.000022    0.01    -46.10   
   105. D(H  15,N   5,C   4,C   1)     23.88  0.000012    0.01     23.89   
    ----------------------------------------------------------------------------

         *************************************************************
         *                GEOMETRY OPTIMIZATION CYCLE   2            *
         *************************************************************
---------------------------------
CARTESIAN COORDINATES (ANGSTROEM)
---------------------------------
  C      1.042065   -0.000184   -1.692909
  C      0.028761    0.120059   -0.583326
  C     -0.672904    1.454774   -0.516341
  C     -0.749032   -1.103922   -0.184919
  C      0.355918   -0.609669    0.687015
  N     -0.000241    0.000265    1.991275
  H      1.540059   -0.971615   -1.683275
  H      1.805904    0.776747   -1.613126
  H      0.549574    0.110981   -2.661114
  H     -1.487135    1.493238    0.216358
  H     -1.142585    1.664087   -1.479323
  H      0.027136    2.269647   -0.312917
  H     -1.770827   -0.958934    0.151365
  H     -0.581004   -2.040311   -0.702005
  H      1.278195   -1.170434    0.769859
  H     -0.770332    0.663349    1.872076
  H      0.787504    0.517973    2.388166
  H     -0.291651   -0.704921    2.672670

----------------------------
CARTESIAN COORDINATES (A.U.)
----------------------------
  NO LB      ZA    FRAG    MASS        X           Y           Z
   0 C     6.0000    0    12.011          1.969217853167459         -0.000346911518671         -3.199134697939152
   1 C     6.0000    0    12.011          0.054350589662730          0.226878901124842         -1.102326623623708
   2 C     6.0000    0    12.011         -1.271605007307662          2.749125088525423         -0.975742465726014
   3 C     6.0000    0    12.011         -1.415465777597952         -2.086111067006104         -0.349446935711365
   4 C     6.0000    0    12.011          0.672587810011617         -1.152107124038838          1.298270238609882
   5 N     7.0000    0    14.007         -0.000455755981495          0.000500222002557          3.762965299198683
   6 H     1.0000    0     1.008          2.910289119726121         -1.836086226905565         -3.180929239346888
   7 H     1.0000    0     1.008          3.412664593801982          1.467839571093683         -3.048366556618090
   8 H     1.0000    0     1.008          1.038544549220194          0.209724289766491         -5.028776630955813
   9 H     1.0000    0     1.008         -2.810277613253821          2.821810765684378          0.408856678402226
  10 H     1.0000    0     1.008         -2.159173509129654          3.144669285986564         -2.795514796940452
  11 H     1.0000    0     1.008          0.051279424813432          4.289010632559984         -0.591328063005831
  12 H     1.0000    0     1.008         -3.346377287376293         -1.812122760659926          0.286038743134479
  13 H     1.0000    0     1.008         -1.097937736412447         -3.855629299651003         -1.326596336142656
  14 H     1.0000    0     1.008          2.415439087784006         -2.211798822315934          1.454822040907554
  15 H     1.0000    0     1.008         -1.455716838031685          1.253547663813039          3.537710722814140
  16 H     1.0000    0     1.008          1.488167616217757          0.978826928712840          4.512980289293591
  17 H     1.0000    0     1.008         -0.551140681710274         -1.332106770861773          5.050613802217807

--------------------------------
INTERNAL COORDINATES (ANGSTROEM)
--------------------------------
 C      0   0   0   0.000000     0.000     0.000
 C      1   0   0   1.507454     0.000     0.000
 C      2   1   0   1.509399   114.562     0.000
 C      2   1   3   1.503935   118.536   146.471
 C      4   2   1   1.491801    60.141   104.954
 N      5   4   2   1.483227   118.187   109.696
 H      1   2   3   1.091682   111.785   178.488
 H      1   2   3   1.092445   111.070    57.458
 H      1   2   3   1.091937   109.960   298.068
 H      3   2   1   1.096037   113.956   173.272
 H      3   2   1   1.091671   109.293    55.830
 H      3   2   1   1.093368   111.694   297.303
 H      4   2   1   1.085437   117.401   213.335
 H      4   2   1   1.082790   119.805   359.286
 H      5   4   2   1.082550   120.274   250.320
 H      6   5   4   1.023196   110.168   313.900
 H      6   5   4   1.022784   111.373   194.996
 H      6   5   4   1.022988   111.755    74.037

---------------------------
INTERNAL COORDINATES (A.U.)
---------------------------
 C      0   0   0   0.000000     0.000     0.000
 C      1   0   0   2.848676     0.000     0.000
 C      2   1   0   2.852351   114.562     0.000
 C      2   1   3   2.842026   118.536   146.471
 C      4   2   1   2.819096    60.141   104.954
 N      5   4   2   2.802894   118.187   109.696
 H      1   2   3   2.062980   111.785   178.488
 H      1   2   3   2.064423   111.070    57.458
 H      1   2   3   2.063461   109.960   298.068
 H      3   2   1   2.071210   113.956   173.272
 H      3   2   1   2.062960   109.293    55.830
 H      3   2   1   2.066167   111.694   297.303
 H      4   2   1   2.051178   117.401   213.335
 H      4   2   1   2.046177   119.805   359.286
 H      5   4   2   2.045724   120.274   250.320
 H      6   5   4   1.933559   110.168   313.900
 H      6   5   4   1.932782   111.373   194.996
 H      6   5   4   1.933167   111.755    74.037



           ************************************************************
           *        Program running with 8 parallel MPI-processes     *
           *              working on a common directory               *
           ************************************************************
           ************************************************************
           *              Shut down parallel processing               *
           ************************************************************


           ************************************************************
           *        Program running with 8 parallel MPI-processes     *
           *              working on a common directory               *
           ************************************************************

Diagonalization of the overlap matrix:
Smallest eigenvalue                        ... 1.331e-04
Time for diagonalization                   ...    0.017 sec
Threshold for overlap eigenvalues          ... 1.000e-08
Number of eigenvalues below threshold      ... 0
Time for construction of square roots      ...    0.011 sec
Total time needed                          ...    0.028 sec

-------------------
DFT GRID GENERATION
-------------------

General Integration Accuracy     IntAcc      ...  4.340
Radial Grid Type                 RadialGrid  ... Gauss-Chebyshev
Angular Grid (max. acc.)         AngularGrid ... Lebedev-194
Angular grid pruning method      GridPruning ... 3 (G Style)
Weight generation scheme         WeightScheme... Becke
Basis function cutoff            BFCut       ...    1.0000e-11
Integration weight cutoff        WCut        ...    1.0000e-14
Grids for H and He will be reduced by one unit

# of grid points (after initial pruning)     ...  38064 (   0.0 sec)
# of grid points (after weights+screening)   ...  34655 (   0.1 sec)
nearest neighbour list constructed           ...    0.0 sec
Grid point re-assignment to atoms done       ...    0.0 sec
Grid point division into batches done        ...    0.1 sec
Reduced shell lists constructed in    0.1 sec

Total number of grid points                  ...    34655
Total number of batches                      ...      550
Average number of points per batch           ...       63
Average number of grid points per atom       ...     1925
Average number of shells per batch           ...    96.79 (84.90%)
Average number of basis functions per batch  ...   228.90 (88.72%)
Average number of large shells per batch     ...    81.39 (84.09%)
Average number of large basis fcns per batch ...   194.27 (84.87%)
Maximum spatial batch extension              ...   2.41,  2.09,  2.35 au
Average spatial batch extension              ...   0.15,  0.15,  0.15 au

Time for grid setup =    0.208 sec

--------------
SCF ITERATIONS
--------------
ITER       Energy         Delta-E        Max-DP      RMS-DP      [F,P]     Damp
               ***  Starting incremental Fock matrix formation  ***
                      *** Initiating the SOSCF procedure ***
                      *** Re-Reading the Fockian *** 
                      *** Removing any level shift *** 
ITER      Energy       Delta-E        Grad      Rot      Max-DP    RMS-DP
  0   -252.02754804 -252.0275480438  0.000103  0.000103  0.000261  0.000006
               *** Restarting incremental Fock matrix formation ***
  1   -252.02754906  -0.0000010193  0.000024  0.000040  0.000101  0.000003
  2   -252.02754916  -0.0000000956  0.000006  0.000012  0.000025  0.000001
  3   -252.02754916  -0.0000000012  0.000007  0.000008  0.000012  0.000000
                  ***Gradient check signals convergence***
              ***Rediagonalizing the Fockian in SOSCF/NRSCF***

               *****************************************************
               *                     SUCCESS                       *
               *           SCF CONVERGED AFTER   4 CYCLES          *
               *****************************************************

Setting up the final grid:

General Integration Accuracy     IntAcc      ...  5.010
Radial Grid Type                 RadialGrid  ... Gauss-Chebyshev
Angular Grid (max. acc.)         AngularGrid ... Lebedev-434
Angular grid pruning method      GridPruning ... 3 (G Style)
Weight generation scheme         WeightScheme... Becke
Basis function cutoff            BFCut       ...    1.0000e-11
Integration weight cutoff        WCut        ...    1.0000e-14
Grids for H and He will be reduced by one unit

# of grid points (after initial pruning)     ... 144384 (   0.0 sec)
# of grid points (after weights+screening)   ... 129903 (   0.1 sec)
nearest neighbour list constructed           ...    0.0 sec
Grid point re-assignment to atoms done       ...    0.0 sec
Grid point division into batches done        ...    0.9 sec
Reduced shell lists constructed in    1.1 sec

Total number of grid points                  ...   129903
Total number of batches                      ...     2038
Average number of points per batch           ...       63
Average number of grid points per atom       ...     7217
Average number of shells per batch           ...    95.21 (83.52%)
Average number of basis functions per batch  ...   225.80 (87.52%)
Average number of large shells per batch     ...    78.53 (82.48%)
Average number of large basis fcns per batch ...   186.48 (82.58%)
Maximum spatial batch extension              ...   2.37,  2.10,  3.42 au
Average spatial batch extension              ...   0.10,  0.10,  0.10 au

Final grid set up in    1.3 sec
Final integration                            ... done (   0.7 sec)
Change in XC energy                          ...     0.000415368
Integrated number of electrons               ...    47.999996558
Previous integrated no of electrons          ...    48.000115859
Total Energy       :         -252.02713380 Eh           -6858.00696 eV
  Last Energy change         ...   -3.3089e-09  Tolerance :   1.0000e-08
  Last MAX-Density change    ...    1.8126e-06  Tolerance :   1.0000e-07
             **** THE GBW FILE WAS UPDATED (0354_+.gbw) ****
             **** DENSITY FILE WAS UPDATED (0354_+.scfp.tmp) ****
             **** ENERGY FILE WAS UPDATED (0354_+.en.tmp) ****
Total SCF time: 0 days 0 hours 0 min 23 sec 
           ************************************************************
           *              Shut down parallel processing               *
           ************************************************************

-------------------------   --------------------
FINAL SINGLE POINT ENERGY      -252.027133795087
-------------------------   --------------------



           ************************************************************
           *        Program running with 8 parallel MPI-processes     *
           *              working on a common directory               *
           ************************************************************
------------------------------------------------------------------------------
                         ORCA SCF GRADIENT CALCULATION
------------------------------------------------------------------------------

Gradient of the Kohn-Sham DFT energy:
Kohn-Sham wavefunction type      ... RKS
Hartree-Fock exchange scaling    ...    0.250
Number of operators              ...    1
Number of atoms                  ...   18
Basis set dimensions             ...  258
Integral neglect threshold       ... 2.5e-11
Integral primitive cutoff        ... 2.5e-12

Nuclear repulsion gradient       ... done
One Electron Gradient            ... done
Pre-screening matrix             ... done
Starting the two electron gradient:
Two electron gradient done
Exchange-correlation gradient    ... done

------------------
CARTESIAN GRADIENT
------------------

   1   C   :    0.000000079   -0.000009952    0.000063187
   2   C   :   -0.000064738    0.000011048    0.000034269
   3   C   :    0.000049836   -0.000064806    0.000106765
   4   C   :    0.000033648   -0.000002280   -0.000012016
   5   C   :    0.000079220    0.000013870   -0.000142921
   6   N   :   -0.000011042    0.000033979    0.000138088
   7   H   :   -0.000007828   -0.000003903   -0.000008530
   8   H   :    0.000008190   -0.000004024   -0.000038400
   9   H   :   -0.000002372    0.000041515   -0.000005064
  10   H   :   -0.000064182    0.000028422   -0.000069550
  11   H   :    0.000007150    0.000036649   -0.000004376
  12   H   :    0.000022947   -0.000001586   -0.000018721
  13   H   :   -0.000002570   -0.000019236    0.000015402
  14   H   :   -0.000025598   -0.000025941    0.000028521
  15   H   :   -0.000009712   -0.000017166   -0.000005557
  16   H   :   -0.000012001   -0.000011595   -0.000059470
  17   H   :   -0.000002125   -0.000007995   -0.000003457
  18   H   :    0.000001099    0.000003001   -0.000018171

Norm of the cartesian gradient     ...    0.000314822
RMS gradient                       ...    0.000042842
MAX gradient                       ...    0.000142921

-------
TIMINGS
-------

Total SCF gradient time            ...       27.082 sec

One electron gradient       ....       0.113 sec  (  0.4%)
Prescreening matrices       ....       0.221 sec  (  0.8%)
Two electron gradient       ....      23.104 sec  ( 85.3%)
XC gradient                 ....       3.304 sec  ( 12.2%)
           ************************************************************
           *              Shut down parallel processing               *
           ************************************************************
------------------------------------------------------------------------------
                         ORCA GEOMETRY RELAXATION STEP
------------------------------------------------------------------------------

Reading the OPT-File                    .... done
Getting information on internals        .... done
Copying old internal coords+grads       .... done
Making the new internal coordinates     .... (new redundants).... done
Validating the new internal coordinates .... (new redundants).... done
Calculating the B-matrix                .... done
Calculating the G,G- and P matrices     .... done
Transforming gradient to internals      .... done
Projecting the internal gradient        .... done
Number of atoms                         ....  18
Number of internal coordinates          .... 105
Current Energy                          ....  -252.027133795 Eh
Current gradient norm                   ....     0.000314822 Eh/bohr
Maximum allowed component of the step   ....  0.300
Current trust radius                    ....  0.300
Updating the Hessian (BFGS)             .... done
Forming the augmented Hessian           .... done
Diagonalizing the augmented Hessian     .... done
Last element of RFO vector              ....  0.999957851
Lowest eigenvalues of augmented Hessian:
 -0.000001018  0.008753956  0.013038670  0.014406783  0.029522744
Length of the computed step             ....  0.009181651
The final length of the internal step   ....  0.009181651
Converting the step to cartesian space:
 Initial RMS(Int)=    0.0008960374
Transforming coordinates:
 Iter   0:  RMS(Cart)=    0.0013589954 RMS(Int)=    0.0008959623
 Iter   1:  RMS(Cart)=    0.0000015079 RMS(Int)=    0.0000010692
 Iter   2:  RMS(Cart)=    0.0000000039 RMS(Int)=    0.0000000026
done
Storing new coordinates                 .... done

                                .--------------------.
          ----------------------|Geometry convergence|---------------------
          Item                value                 Tolerance   Converged
          -----------------------------------------------------------------
          Energy change      -0.00000156            0.00000100      NO
          RMS gradient        0.00002351            0.00003000      YES
          MAX gradient        0.00008909            0.00010000      YES
          RMS step            0.00089604            0.00060000      NO
          MAX step            0.00330045            0.00100000      NO
          ....................................................
          Max(Bonds)      0.0002      Max(Angles)    0.04
          Max(Dihed)        0.19      Max(Improp)    0.00
          -----------------------------------------------------------------

The optimization has not yet converged - more geometry cycles are needed


    ---------------------------------------------------------------------------
                         Redundant Internal Coordinates
                            (Angstroem and degrees)

        Definition                    Value    dE/dq     Step     New-Value
    ----------------------------------------------------------------------------
     1. B(C   1,C   0)                1.5075 -0.000011  0.0000    1.5075   
     2. B(C   2,C   1)                1.5094 -0.000010 -0.0000    1.5094   
     3. B(C   3,C   1)                1.5039  0.000037 -0.0001    1.5038   
     4. B(C   4,C   3)                1.4918 -0.000020  0.0000    1.4918   
     5. B(C   4,C   1)                1.5011 -0.000049  0.0001    1.5012   
     6. B(N   5,C   4)                1.4832  0.000066 -0.0002    1.4830   
     7. B(H   6,C   0)                1.0917  0.000001 -0.0000    1.0916   
     8. B(H   7,C   0)                1.0924  0.000000 -0.0000    1.0924   
     9. B(H   8,C   0)                1.0919  0.000009 -0.0001    1.0919   
    10. B(H   9,C   2)                1.0960  0.000002 -0.0000    1.0960   
    11. B(H  10,C   2)                1.0917  0.000009 -0.0000    1.0916   
    12. B(H  11,C   2)                1.0934  0.000009 -0.0001    1.0933   
    13. B(H  12,C   3)                1.0854  0.000004 -0.0001    1.0854   
    14. B(H  13,C   3)                1.0828  0.000005 -0.0001    1.0827   
    15. B(H  14,C   4)                1.0826 -0.000000 -0.0001    1.0825   
    16. B(H  15,N   5)                1.0232  0.000010  0.0000    1.0232   
    17. B(H  16,N   5)                1.0228 -0.000007  0.0000    1.0228   
    18. B(H  17,N   5)                1.0230 -0.000015 -0.0000    1.0230   
    19. A(C   1,C   0,H   7)          111.07  0.000051   -0.02    111.05   
    20. A(H   6,C   0,H   7)          108.26 -0.000014   -0.00    108.25   
    21. A(H   7,C   0,H   8)          107.92 -0.000032    0.02    107.94   
    22. A(C   1,C   0,H   8)          109.96 -0.000019    0.01    109.97   
    23. A(H   6,C   0,H   8)          107.71  0.000011   -0.01    107.70   
    24. A(C   1,C   0,H   6)          111.78  0.000000   -0.00    111.78   
    25. A(C   2,C   1,C   3)          117.87  0.000022   -0.02    117.85   
    26. A(C   3,C   1,C   4)           59.53 -0.000006    0.00     59.53   
    27. A(C   2,C   1,C   4)          119.58  0.000019   -0.01    119.57   
    28. A(C   0,C   1,C   4)          115.95  0.000004    0.01    115.96   
    29. A(C   0,C   1,C   2)          114.56 -0.000030    0.02    114.58   
    30. A(C   0,C   1,C   3)          118.54  0.000008   -0.00    118.53   
    31. A(H  10,C   2,H  11)          107.26 -0.000016    0.02    107.28   
    32. A(H   9,C   2,H  11)          108.97  0.000005   -0.02    108.95   
    33. A(C   1,C   2,H  11)          111.69 -0.000040    0.01    111.71   
    34. A(H   9,C   2,H  10)          105.27 -0.000059    0.03    105.30   
    35. A(C   1,C   2,H   9)          113.96  0.000089   -0.04    113.91   
    36. A(C   1,C   2,H  10)          109.29  0.000013    0.00    109.30   
    37. A(H  12,C   3,H  13)          114.18 -0.000022    0.01    114.19   
    38. A(C   4,C   3,H  13)          116.79  0.000010    0.01    116.80   
    39. A(C   1,C   3,H  13)          119.81  0.000032   -0.03    119.78   
    40. A(C   4,C   3,H  12)          118.16  0.000004    0.01    118.17   
    41. A(C   1,C   3,H  12)          117.40  0.000003   -0.01    117.39   
    42. A(C   1,C   3,C   4)           60.14 -0.000023    0.01     60.15   
    43. A(N   5,C   4,H  14)          110.51  0.000035   -0.01    110.49   
    44. A(C   3,C   4,H  14)          120.27 -0.000009    0.01    120.28   
    45. A(C   1,C   4,H  14)          120.15  0.000003   -0.01    120.14   
    46. A(C   3,C   4,N   5)          118.19 -0.000033    0.02    118.21   
    47. A(C   1,C   4,N   5)          119.47 -0.000038    0.01    119.48   
    48. A(C   1,C   4,C   3)           60.33  0.000029   -0.01     60.32   
    49. A(C   4,N   5,H  15)          110.17 -0.000084    0.03    110.20   
    50. A(H  16,N   5,H  17)          108.05  0.000004   -0.01    108.04   
    51. A(H  15,N   5,H  17)          108.05  0.000032   -0.01    108.05   
    52. A(C   4,N   5,H  17)          111.76  0.000002   -0.00    111.75   
    53. A(H  15,N   5,H  16)          107.27  0.000034   -0.01    107.26   
    54. A(C   4,N   5,H  16)          111.37  0.000015   -0.01    111.37   
    55. D(C   3,C   1,C   0,H   7)   -156.07 -0.000002   -0.06   -156.13   
    56. D(C   2,C   1,C   0,H   8)    -61.93  0.000011   -0.06    -61.99   
    57. D(C   4,C   1,C   0,H   8)    152.37  0.000014   -0.07    152.30   
    58. D(C   4,C   1,C   0,H   6)     32.79  0.000013   -0.07     32.72   
    59. D(C   3,C   1,C   0,H   8)     84.54  0.000017   -0.08     84.46   
    60. D(C   2,C   1,C   0,H   7)     57.46 -0.000008   -0.04     57.42   
    61. D(C   4,C   1,C   0,H   7)    -88.24 -0.000004   -0.05    -88.29   
    62. D(C   3,C   1,C   0,H   6)    -35.04  0.000016   -0.08    -35.12   
    63. D(C   2,C   1,C   0,H   6)    178.49  0.000010   -0.06    178.43   
    64. D(H  10,C   2,C   1,C   3)    -90.88 -0.000024    0.16    -90.71   
    65. D(H   9,C   2,C   1,C   3)     26.57 -0.000034    0.18     26.74   
    66. D(H  11,C   2,C   1,C   3)    150.60  0.000011    0.12    150.72   
    67. D(H  11,C   2,C   1,C   4)     81.66  0.000003    0.14     81.80   
    68. D(H  10,C   2,C   1,C   4)   -159.81 -0.000033    0.17   -159.64   
    69. D(H   9,C   2,C   1,C   0)    173.27 -0.000032    0.16    173.44   
    70. D(H  11,C   2,C   1,C   0)    -62.70  0.000013    0.11    -62.59   
    71. D(H  10,C   2,C   1,C   0)     55.83 -0.000022    0.15     55.98   
    72. D(H   9,C   2,C   1,C   4)    -42.37 -0.000042    0.19    -42.18   
    73. D(H  13,C   3,C   1,C   4)   -105.67  0.000011   -0.03   -105.69   
    74. D(H  13,C   3,C   1,C   0)     -0.71  0.000011   -0.02     -0.73   
    75. D(H  12,C   3,C   1,C   4)    108.38 -0.000005    0.02    108.40   
    76. D(H  12,C   3,C   1,C   2)     -1.30 -0.000017    0.02     -1.27   
    77. D(H  13,C   3,C   1,C   2)    144.65 -0.000000   -0.02    144.63   
    78. D(C   4,C   3,C   1,C   2)   -109.68 -0.000012    0.00   -109.67   
    79. D(C   4,C   3,C   1,C   0)    104.95 -0.000001    0.01    104.97   
    80. D(H  12,C   3,C   1,C   0)   -146.67 -0.000006    0.03   -146.63   
    81. D(N   5,C   4,C   1,C   2)     -0.77  0.000028   -0.04     -0.80   
    82. D(N   5,C   4,C   1,C   0)    143.12  0.000006   -0.01    143.11   
    83. D(C   3,C   4,C   1,C   2)    106.84  0.000016   -0.02    106.82   
    84. D(N   5,C   4,C   1,C   3)   -107.61  0.000012   -0.02   -107.63   
    85. D(C   3,C   4,C   1,C   0)   -109.27 -0.000006    0.01   -109.26   
    86. D(H  14,C   4,C   3,H  13)      0.94  0.000007   -0.01      0.93   
    87. D(H  14,C   4,C   3,H  12)    143.19 -0.000012    0.03    143.22   
    88. D(H  14,C   4,C   3,C   1)   -109.68 -0.000019    0.02   -109.66   
    89. D(N   5,C   4,C   3,H  13)   -139.68  0.000004   -0.03   -139.71   
    90. D(N   5,C   4,C   3,H  12)      2.56 -0.000015    0.02      2.58   
    91. D(N   5,C   4,C   3,C   1)    109.70 -0.000022    0.00    109.70   
    92. D(C   1,C   4,C   3,H  13)    110.62  0.000026   -0.03    110.59   
    93. D(C   1,C   4,C   3,H  12)   -107.13  0.000007    0.02   -107.12   
    94. D(H  14,C   4,C   1,C   3)    109.88 -0.000000    0.01    109.89   
    95. D(H  14,C   4,C   1,C   2)   -143.28  0.000016   -0.01   -143.29   
    96. D(H  14,C   4,C   1,C   0)      0.61 -0.000006    0.02      0.62   
    97. D(H  17,N   5,C   4,H  14)    -70.16 -0.000006   -0.00    -70.17   
    98. D(H  17,N   5,C   4,C   3)     74.04 -0.000017    0.02     74.05   
    99. D(H  17,N   5,C   4,C   1)    144.02 -0.000009    0.02    144.04   
   100. D(H  16,N   5,C   4,H  14)     50.80  0.000011   -0.02     50.77   
   101. D(H  16,N   5,C   4,C   3)   -165.00  0.000000   -0.00   -165.00   
   102. D(H  16,N   5,C   4,C   1)    -95.02  0.000008    0.00    -95.02   
   103. D(H  15,N   5,C   4,H  14)    169.70  0.000008   -0.02    169.68   
   104. D(H  15,N   5,C   4,C   3)    -46.10 -0.000003    0.00    -46.10   
   105. D(H  15,N   5,C   4,C   1)     23.89  0.000005    0.01     23.89   
    ----------------------------------------------------------------------------

         *************************************************************
         *                GEOMETRY OPTIMIZATION CYCLE   3            *
         *************************************************************
---------------------------------
CARTESIAN COORDINATES (ANGSTROEM)
---------------------------------
  C      1.042393   -0.000277   -1.692875
  C      0.028934    0.120174   -0.583411
  C     -0.672940    1.454774   -0.516376
  C     -0.749155   -1.103598   -0.185328
  C      0.355587   -0.609692    0.687123
  N     -0.000379    0.000184    1.991242
  H      1.540999   -0.971346   -1.682383
  H      1.805710    0.777162   -1.613196
  H      0.550075    0.109709   -2.661226
  H     -1.485162    1.493185    0.218479
  H     -1.144871    1.662930   -1.478477
  H      0.027039    2.270063   -0.314833
  H     -1.771052   -0.958272    0.150254
  H     -0.581111   -2.039639   -0.702929
  H      1.277798   -1.170444    0.770108
  H     -0.770257    0.663682    1.872626
  H      0.787622    0.517514    2.388137
  H     -0.291825   -0.704979    2.672593

----------------------------
CARTESIAN COORDINATES (A.U.)
----------------------------
  NO LB      ZA    FRAG    MASS        X           Y           Z
   0 C     6.0000    0    12.011          1.969836738472047         -0.000522630019003         -3.199070557502258
   1 C     6.0000    0    12.011          0.054676902587338          0.227096581788200         -1.102487753573013
   2 C     6.0000    0    12.011         -1.271672430327684          2.749124145911180         -0.975809526450724
   3 C     6.0000    0    12.011         -1.415696974477174         -2.085497492878493         -0.350219184723025
   4 C     6.0000    0    12.011          0.671962058291956         -1.152150188681806          1.298473966950196
   5 N     7.0000    0    14.007         -0.000715318304257          0.000347160921426          3.762901995493273
   6 H     1.0000    0     1.008          2.912066663107974         -1.835578229181891         -3.179243120766810
   7 H     1.0000    0     1.008          3.412297806419517          1.468622930978415         -3.048498612860090
   8 H     1.0000    0     1.008          1.039491646362021          0.207320695309662         -5.028988078529645
   9 H     1.0000    0     1.008         -2.806548933196605          2.821711608623862          0.412866030579182
  10 H     1.0000    0     1.008         -2.163493073884728          3.142481749047485         -2.793916086506658
  11 H     1.0000    0     1.008          0.051096361445703          4.289797371077480         -0.594947679097279
  12 H     1.0000    0     1.008         -3.346804173972034         -1.810871444397551          0.283939779605386
  13 H     1.0000    0     1.008         -1.098140850806440         -3.854359106312429         -1.328342587839775
  14 H     1.0000    0     1.008          2.414687530994505         -2.211819091535247          1.455294118374544
  15 H     1.0000    0     1.008         -1.455575556783243          1.254176782368168          3.538749743581495
  16 H     1.0000    0     1.008          1.488390567401847          0.977960499043905          4.512924680450683
  17 H     1.0000    0     1.008         -0.551468525726729         -1.332216975751374          5.050468341382911

--------------------------------
INTERNAL COORDINATES (ANGSTROEM)
--------------------------------
 C      0   0   0   0.000000     0.000     0.000
 C      1   0   0   1.507487     0.000     0.000
 C      2   1   0   1.509396   114.579     0.000
 C      2   1   3   1.503832   118.531   146.451
 C      4   2   1   1.491834    60.148   104.965
 N      5   4   2   1.483033   118.208   109.696
 H      1   2   3   1.091648   111.781   178.433
 H      1   2   3   1.092434   111.051    57.422
 H      1   2   3   1.091868   109.970   298.011
 H      3   2   1   1.095989   113.915   173.436
 H      3   2   1   1.091643   109.298    55.978
 H      3   2   1   1.093292   111.705   297.413
 H      4   2   1   1.085362   117.389   213.366
 H      4   2   1   1.082738   119.780   359.270
 H      5   4   2   1.082498   120.279   250.338
 H      6   5   4   1.023237   110.201   313.904
 H      6   5   4   1.022791   111.365   194.996
 H      6   5   4   1.022954   111.753    74.055

---------------------------
INTERNAL COORDINATES (A.U.)
---------------------------
 C      0   0   0   0.000000     0.000     0.000
 C      1   0   0   2.848738     0.000     0.000
 C      2   1   0   2.852345   114.579     0.000
 C      2   1   3   2.841830   118.531   146.451
 C      4   2   1   2.819157    60.148   104.965
 N      5   4   2   2.802526   118.208   109.696
 H      1   2   3   2.062915   111.781   178.433
 H      1   2   3   2.064402   111.051    57.422
 H      1   2   3   2.063332   109.970   298.011
 H      3   2   1   2.071119   113.915   173.436
 H      3   2   1   2.062907   109.298    55.978
 H      3   2   1   2.066022   111.705   297.413
 H      4   2   1   2.051037   117.389   213.366
 H      4   2   1   2.046079   119.780   359.270
 H      5   4   2   2.045625   120.279   250.338
 H      6   5   4   1.933637   110.201   313.904
 H      6   5   4   1.932795   111.365   194.996
 H      6   5   4   1.933102   111.753    74.055



           ************************************************************
           *        Program running with 8 parallel MPI-processes     *
           *              working on a common directory               *
           ************************************************************
           ************************************************************
           *              Shut down parallel processing               *
           ************************************************************


           ************************************************************
           *        Program running with 8 parallel MPI-processes     *
           *              working on a common directory               *
           ************************************************************

Diagonalization of the overlap matrix:
Smallest eigenvalue                        ... 1.331e-04
Time for diagonalization                   ...    0.017 sec
Threshold for overlap eigenvalues          ... 1.000e-08
Number of eigenvalues below threshold      ... 0
Time for construction of square roots      ...    0.007 sec
Total time needed                          ...    0.025 sec

-------------------
DFT GRID GENERATION
-------------------

General Integration Accuracy     IntAcc      ...  4.340
Radial Grid Type                 RadialGrid  ... Gauss-Chebyshev
Angular Grid (max. acc.)         AngularGrid ... Lebedev-194
Angular grid pruning method      GridPruning ... 3 (G Style)
Weight generation scheme         WeightScheme... Becke
Basis function cutoff            BFCut       ...    1.0000e-11
Integration weight cutoff        WCut        ...    1.0000e-14
Grids for H and He will be reduced by one unit

# of grid points (after initial pruning)     ...  38064 (   0.0 sec)
# of grid points (after weights+screening)   ...  34655 (   0.0 sec)
nearest neighbour list constructed           ...    0.0 sec
Grid point re-assignment to atoms done       ...    0.0 sec
Grid point division into batches done        ...    0.1 sec
Reduced shell lists constructed in    0.1 sec

Total number of grid points                  ...    34655
Total number of batches                      ...      550
Average number of points per batch           ...       63
Average number of grid points per atom       ...     1925
Average number of shells per batch           ...    96.89 (84.99%)
Average number of basis functions per batch  ...   229.20 (88.84%)
Average number of large shells per batch     ...    81.37 (83.99%)
Average number of large basis fcns per batch ...   194.06 (84.67%)
Maximum spatial batch extension              ...   2.41,  2.09,  2.35 au
Average spatial batch extension              ...   0.15,  0.15,  0.15 au

Time for grid setup =    0.192 sec

--------------
SCF ITERATIONS
--------------
ITER       Energy         Delta-E        Max-DP      RMS-DP      [F,P]     Damp
               ***  Starting incremental Fock matrix formation  ***
                      *** Initiating the SOSCF procedure ***
                      *** Re-Reading the Fockian *** 
                      *** Removing any level shift *** 
ITER      Energy       Delta-E        Grad      Rot      Max-DP    RMS-DP
  0   -252.02754791 -252.0275479061  0.000116  0.000116  0.000295  0.000006
               *** Restarting incremental Fock matrix formation ***
  1   -252.02754939  -0.0000014869  0.000034  0.000047  0.000110  0.000003
  2   -252.02754954  -0.0000001447  0.000006  0.000014  0.000024  0.000001
  3   -252.02754954  -0.0000000003  0.000010  0.000010  0.000012  0.000000
                  ***Gradient check signals convergence***
              ***Rediagonalizing the Fockian in SOSCF/NRSCF***

               *****************************************************
               *                     SUCCESS                       *
               *           SCF CONVERGED AFTER   4 CYCLES          *
               *****************************************************

Setting up the final grid:

General Integration Accuracy     IntAcc      ...  5.010
Radial Grid Type                 RadialGrid  ... Gauss-Chebyshev
Angular Grid (max. acc.)         AngularGrid ... Lebedev-434
Angular grid pruning method      GridPruning ... 3 (G Style)
Weight generation scheme         WeightScheme... Becke
Basis function cutoff            BFCut       ...    1.0000e-11
Integration weight cutoff        WCut        ...    1.0000e-14
Grids for H and He will be reduced by one unit

# of grid points (after initial pruning)     ... 144384 (   0.0 sec)
# of grid points (after weights+screening)   ... 129901 (   0.1 sec)
nearest neighbour list constructed           ...    0.0 sec
Grid point re-assignment to atoms done       ...    0.0 sec
Grid point division into batches done        ...    0.9 sec
Reduced shell lists constructed in    1.1 sec

Total number of grid points                  ...   129901
Total number of batches                      ...     2038
Average number of points per batch           ...       63
Average number of grid points per atom       ...     7217
Average number of shells per batch           ...    95.21 (83.52%)
Average number of basis functions per batch  ...   225.86 (87.54%)
Average number of large shells per batch     ...    78.46 (82.40%)
Average number of large basis fcns per batch ...   186.27 (82.47%)
Maximum spatial batch extension              ...   2.48,  2.10,  3.42 au
Average spatial batch extension              ...   0.10,  0.10,  0.10 au

Final grid set up in    1.3 sec
Final integration                            ... done (   0.7 sec)
Change in XC energy                          ...     0.000415002
Integrated number of electrons               ...    47.999998107
Previous integrated no of electrons          ...    48.000120852
Total Energy       :         -252.02713454 Eh           -6858.00699 eV
  Last Energy change         ...   -3.7420e-09  Tolerance :   1.0000e-08
  Last MAX-Density change    ...    2.5424e-06  Tolerance :   1.0000e-07
             **** THE GBW FILE WAS UPDATED (0354_+.gbw) ****
             **** DENSITY FILE WAS UPDATED (0354_+.scfp.tmp) ****
             **** ENERGY FILE WAS UPDATED (0354_+.en.tmp) ****
Total SCF time: 0 days 0 hours 0 min 23 sec 
           ************************************************************
           *              Shut down parallel processing               *
           ************************************************************

-------------------------   --------------------
FINAL SINGLE POINT ENERGY      -252.027134539363
-------------------------   --------------------



           ************************************************************
           *        Program running with 8 parallel MPI-processes     *
           *              working on a common directory               *
           ************************************************************
------------------------------------------------------------------------------
                         ORCA SCF GRADIENT CALCULATION
------------------------------------------------------------------------------

Gradient of the Kohn-Sham DFT energy:
Kohn-Sham wavefunction type      ... RKS
Hartree-Fock exchange scaling    ...    0.250
Number of operators              ...    1
Number of atoms                  ...   18
Basis set dimensions             ...  258
Integral neglect threshold       ... 2.5e-11
Integral primitive cutoff        ... 2.5e-12

Nuclear repulsion gradient       ... done
One Electron Gradient            ... done
Pre-screening matrix             ... done
Starting the two electron gradient:
Two electron gradient done
Exchange-correlation gradient    ... done

------------------
CARTESIAN GRADIENT
------------------

   1   C   :   -0.000010910   -0.000031951   -0.000038284
   2   C   :   -0.000083709   -0.000007116    0.000026832
   3   C   :    0.000017727    0.000013098    0.000065618
   4   C   :    0.000009316   -0.000019466    0.000000927
[...]
     31       0.158713  -0.080261   0.038371  -0.278093  -0.016765  -0.025406
     32      -0.017523  -0.136692   0.143624   0.128983  -0.021132   0.009025
     33      -0.054846  -0.209106   0.052415   0.105332  -0.013521   0.001336
     34       0.075747   0.119430  -0.039028  -0.174202   0.004963  -0.009859
     35      -0.162342   0.162882   0.034890   0.340605   0.024953   0.040386
     36      -0.044518  -0.021412  -0.036118   0.014232   0.003049  -0.004344
     37      -0.197479  -0.082822  -0.211500   0.164007  -0.011613  -0.007570
     38      -0.132979  -0.043435  -0.116880   0.092472  -0.010367  -0.002499
     39      -0.238433  -0.097585  -0.231395   0.172605  -0.019613  -0.004947
     40      -0.047879  -0.017244  -0.019625   0.008749  -0.002514  -0.006042
     41       0.057493   0.005550   0.031785  -0.051108   0.001495   0.003056
     42      -0.014545  -0.000153  -0.020485   0.023042  -0.008033   0.014821
     43       0.034180  -0.015311   0.042442  -0.061684   0.012690  -0.020247
     44       0.158685  -0.050526   0.119153  -0.162758   0.030547  -0.055101
     45       0.003765  -0.012307   0.021486  -0.017593   0.426576   0.208169
     46      -0.023447   0.007097   0.057043   0.029948   0.476201   0.251963
     47      -0.049438   0.190786   0.433270   0.142417  -0.218984   0.290372
     48       0.002441  -0.085633  -0.266563  -0.034119  -0.276625  -0.169012
     49       0.025526   0.025984   0.132878  -0.054181   0.173979   0.568465
     50      -0.019917   0.121668   0.337476   0.108472   0.254956  -0.394636
     51      -0.038374  -0.058381  -0.115049   0.066202   0.562343  -0.378403
     52      -0.004100   0.144291   0.347776   0.066560  -0.208445  -0.193203
     53      -0.016183   0.112504   0.297805   0.079652   0.047216  -0.330273
                 42         43         44         45         46         47    
      0      -0.001156  -0.035909  -0.000363   0.027632   0.040948  -0.046612
      1       0.000174   0.000924   0.002595   0.023322   0.063722   0.062920
      2       0.000867   0.035613   0.000144   0.023908   0.033583  -0.047387
      3       0.000362   0.000783  -0.000878  -0.000293   0.001164  -0.000357
      4      -0.001435  -0.000200  -0.001075   0.000272   0.001028   0.001338
      5       0.000496  -0.000882   0.001162  -0.000567   0.000682  -0.001531
      6      -0.034203   0.002141  -0.056567  -0.048168   0.025543  -0.005780
      7       0.036831  -0.000912  -0.047116  -0.015846   0.008812  -0.001724
      8       0.026670  -0.001751   0.049982  -0.063285   0.031013  -0.009399
      9       0.001132  -0.000352   0.002341  -0.001167   0.000355  -0.005271
     10      -0.000050  -0.000190   0.000834  -0.000226  -0.000571  -0.004248
     11      -0.000134  -0.000335  -0.000623   0.000133   0.000123  -0.000803
     12      -0.000218   0.000453   0.000392   0.000190   0.000704   0.001456
     13       0.000061  -0.000007   0.000090  -0.000407  -0.000175  -0.001054
     14       0.000566  -0.000199  -0.000054   0.000159  -0.000476   0.000903
     15      -0.001042   0.000090  -0.000802   0.000037  -0.000036  -0.000015
     16       0.000756  -0.000117   0.000656   0.000076   0.000067  -0.000036
     17       0.000020  -0.000011   0.000130   0.000053  -0.000169   0.000182
     18       0.008082   0.251437   0.013257   0.043848   0.176645   0.325703
     19      -0.018578  -0.504893  -0.024937  -0.068953  -0.320174  -0.648806
     20       0.002081   0.014311   0.000617   0.007255   0.013830   0.005469
     21       0.016127   0.423597  -0.003129  -0.237283  -0.487611  -0.069046
     22       0.016878   0.440552  -0.005311  -0.246492  -0.497915  -0.048422
     23       0.002477   0.054059  -0.001716  -0.024411  -0.050776  -0.016968
     24      -0.009366  -0.257487  -0.001729  -0.136302  -0.182373   0.297246
     25       0.001711   0.055131   0.000500   0.037068   0.056602  -0.053906
     26      -0.017498  -0.481354  -0.005701  -0.265569  -0.363615   0.582619
     27       0.587949  -0.027486   0.419766  -0.036736   0.009840  -0.009418
     28      -0.012879   0.001985  -0.018177  -0.002309   0.000842  -0.000612
     29      -0.545023   0.024991  -0.390305   0.012593   0.000298   0.007101
     30       0.133208  -0.002271  -0.195847   0.320540  -0.158801   0.049024
     31      -0.055149   0.001624   0.063917  -0.144188   0.072836  -0.022639
     32       0.307107  -0.005137  -0.351118   0.669073  -0.331674   0.097666
     33      -0.321396   0.004489   0.451718   0.291040  -0.155783   0.033853
     34      -0.355995   0.006549   0.520107   0.337283  -0.183843   0.038955
     35      -0.081442   0.001133   0.144031   0.072158  -0.040368   0.007624
     36      -0.013597   0.006219  -0.026927   0.013400  -0.010857   0.072943
     37       0.004191  -0.002100   0.005643  -0.001900   0.000033  -0.011782
     38       0.004208  -0.001518   0.008457  -0.004942   0.003169  -0.024880
     39       0.002031  -0.002283   0.003098  -0.001245  -0.000521  -0.012534
     40      -0.003987   0.005030  -0.009673   0.007387  -0.003252   0.057757
     41      -0.003757   0.004318  -0.004853   0.004417  -0.000340   0.033104
     42      -0.001763  -0.004399  -0.006019   0.002441  -0.009364  -0.014879
     43       0.002266   0.001706   0.003616  -0.001366   0.006035   0.008157
     44      -0.001904   0.001677  -0.000552   0.001047  -0.001264   0.000814
     45       0.017221  -0.001072   0.011990   0.000317   0.000648   0.001050
     46      -0.010779   0.000732  -0.010559  -0.001484   0.000429  -0.001032
     47      -0.006517  -0.000079  -0.004770   0.000681  -0.000133  -0.000494
     48       0.000727   0.000333   0.000360  -0.000806   0.000084  -0.000179
     49       0.000320   0.000359  -0.001254  -0.001032   0.000330  -0.000021
     50       0.000235   0.000249   0.000591  -0.000199  -0.000648   0.000041
     51       0.001380  -0.000497   0.000848   0.000097  -0.000182   0.000450
     52      -0.002467  -0.000476  -0.000693   0.000160  -0.000500   0.000907
     53       0.000583   0.000877   0.000435  -0.000363   0.000266  -0.000932
                 48         49         50         51         52         53    
      0      -0.005205   0.000565   0.000403   0.000163   0.000046   0.000067
      1       0.005752  -0.001614  -0.001105  -0.000013  -0.000100   0.000049
      2      -0.004092   0.000185   0.000408  -0.000027   0.000090   0.000093
      3      -0.000380   0.000435   0.000364  -0.000169  -0.000025  -0.000068
      4      -0.001812   0.001771   0.000623   0.000026   0.000185   0.000107
      5       0.001171  -0.000821  -0.000464   0.000349  -0.000342  -0.000489
      6       0.000504  -0.000037   0.000472  -0.001324  -0.001789   0.000223
      7      -0.000121   0.000273   0.000390   0.000113   0.000289  -0.000003
      8      -0.004071  -0.001034  -0.000695   0.000608   0.000887  -0.000209
      9       0.058048  -0.008170   0.055076  -0.000098   0.000032   0.000404
     10       0.033439   0.005916  -0.066352   0.000173   0.000005   0.000095
     11       0.003222   0.005257  -0.047764   0.000170  -0.000067   0.000386
     12      -0.001591   0.073925   0.007833   0.002154   0.002129  -0.000739
     13      -0.000552  -0.044501  -0.005003  -0.001823  -0.001229   0.000326
     14      -0.002679   0.006852   0.000914  -0.001829   0.000038   0.000092
     15      -0.000226  -0.002988  -0.000058   0.014200   0.045699  -0.062452
     16       0.000004   0.001954   0.000625  -0.017510  -0.052664  -0.051190
     17      -0.000209   0.000022   0.000297  -0.034001   0.039970   0.005142
     18       0.033407  -0.009207  -0.006902   0.000382   0.000434  -0.000118
     19      -0.066074   0.015905   0.010687  -0.000310  -0.000426   0.000159
     20      -0.000192   0.001120   0.001203  -0.000451  -0.000383   0.000121
     21      -0.002218   0.003215   0.001300  -0.000956  -0.000501  -0.000097
     22      -0.000036   0.003917   0.002301  -0.000767  -0.000093  -0.000187
     23      -0.001239   0.001513   0.000534   0.000063  -0.000060   0.000085
     24       0.028123  -0.002465  -0.002989  -0.000043  -0.000494  -0.000634
     25      -0.004910   0.000679   0.000481  -0.000104   0.000351   0.000076
     26       0.052533  -0.003867  -0.004168   0.001565  -0.000177  -0.000706
     27      -0.024049  -0.004017  -0.006447   0.011623   0.017345  -0.002635
     28       0.002472  -0.000166   0.001701  -0.001871  -0.001899   0.000302
     29       0.020683   0.003513   0.005566  -0.006508  -0.010367   0.001351
     30       0.014755   0.001574   0.001524   0.002630   0.003559  -0.000420
     31      -0.005305  -0.000136  -0.000643  -0.000212  -0.000217  -0.000049
     32       0.030062   0.004578   0.003359   0.000245  -0.000929   0.000241
     33       0.000750   0.000176  -0.001893   0.001461   0.000107   0.000164
     34       0.001400  -0.001025  -0.001065   0.001234   0.000196  -0.000025
     35      -0.000161  -0.000078   0.000105   0.000017  -0.000101   0.000225
     36      -0.760036   0.055286  -0.531291  -0.000279  -0.002133  -0.000315
     37       0.122548  -0.009163   0.074696   0.000238   0.001792   0.000368
     38       0.251917  -0.023753   0.171191  -0.001380   0.000249   0.001182
     39       0.104332   0.013917  -0.126898   0.000300   0.000964   0.000387
     40      -0.490363  -0.075250   0.701912  -0.000304  -0.001159   0.000921
     41      -0.276833  -0.040010   0.390125   0.001508  -0.000041  -0.000667
     42      -0.005638  -0.842975  -0.093897  -0.017633  -0.022524   0.007781
     43       0.001292   0.513893   0.053348   0.011653   0.012605  -0.003366
     44      -0.001909  -0.069311  -0.008787   0.003902   0.001182   0.000277
     45       0.001701   0.025311   0.003587  -0.464967  -0.584544   0.090425
     46       0.000818  -0.020951  -0.000962   0.395050   0.494319  -0.098720
     47       0.001923   0.010757   0.002720  -0.081770  -0.085372   0.017558
     48      -0.000425   0.004183  -0.000490   0.423184  -0.220878   0.618306
     49       0.000774  -0.000250   0.000555   0.266586  -0.156125   0.391539
     50       0.000210  -0.004176   0.001074   0.193882  -0.102220   0.301687
     51       0.000263   0.001536   0.000827  -0.161680   0.168958   0.156321
     52      -0.000056   0.000038  -0.000351  -0.409706   0.392589   0.413481
     53       0.002749  -0.004986   0.000152   0.370096  -0.364431  -0.391297


-----------
IR SPECTRUM
-----------

 Mode    freq (cm**-1)   T**2         TX         TY         TZ
-------------------------------------------------------------------
   6:       170.19    3.345268  (  0.005435   1.178243  -1.398922)
   7:       188.76    3.616693  ( -0.517249   1.413927  -1.161877)
   8:       205.81    5.433152  (  1.811436   1.423703  -0.353442)
   9:       233.59    3.978096  ( -1.635543   0.377502  -1.077305)
  10:       276.93    7.814278  (  0.154627  -1.768676   2.159202)
  11:       349.87    3.002130  (  0.031455  -0.703001   1.583329)
  12:       376.62    1.042843  (  0.697331   0.550698  -0.503294)
  13:       438.62    7.316431  ( -0.865775  -0.618109  -2.486927)
  14:       474.60    5.515332  (  0.481552  -1.022154   2.058796)
  15:       706.35    0.037177  (  0.013123  -0.052440  -0.185080)
  16:       775.36    9.924079  (  1.502706  -1.530150   2.307508)
  17:       865.38    7.193089  (  2.151762   1.596418   0.120237)
  18:       908.41    2.768307  (  1.128198  -0.962223   0.754720)
  19:       934.81    6.009868  ( -1.897898  -0.180325  -1.541211)
  20:       974.08    1.678454  (  1.111405  -0.438442  -0.500999)
  21:       995.97    6.652193  (  0.491763   2.281102  -1.098606)
  22:      1004.43   14.780805  ( -1.154404   2.475678  -2.705397)
  23:      1053.56    9.070111  (  0.076765  -2.407555   1.807733)
  24:      1078.83    1.398250  ( -0.130415   0.576197  -1.024323)
  25:      1121.15   11.101718  ( -0.320855  -1.630505   2.887945)
  26:      1147.67    5.190518  (  1.613377   0.134488   1.602949)
  27:      1172.07    3.174157  ( -0.579521   1.681120   0.110221)
  28:      1190.52   10.597566  ( -2.805208  -1.622252   0.310920)
  29:      1307.42    5.228915  (  0.241728  -1.264507   1.889843)
  30:      1344.51    4.469821  ( -1.121691   0.613590  -1.683787)
  31:      1415.68    8.023274  (  2.226037  -1.424414  -1.019352)
  32:      1426.81    3.437983  ( -0.825318  -0.934482   1.372435)
  33:      1428.51    1.773814  ( -0.056438  -1.130420   0.701983)
  34:      1465.58    2.564903  (  0.734814   0.828040  -1.157282)
  35:      1482.13   32.190639  (  0.625376   3.614856   4.328090)
  36:      1485.16   14.394824  ( -0.650856  -3.352926  -1.651999)
  37:      1488.62   39.127892  (  1.464494   1.274559   5.946314)
  38:      1514.08   90.147214  ( -5.559013   2.540806   7.265596)
  39:      1518.92   15.673972  ( -0.529076  -0.860546   3.827990)
  40:      1649.76   29.995266  (  4.683858   2.837549  -0.071127)
  41:      1659.00   38.650799  ( -3.567257   4.457809  -2.460369)
  42:      3032.47   22.397674  ( -2.082123   1.659012   3.912815)
  43:      3057.65    5.080714  ( -1.827148  -0.094300   1.316569)
  44:      3104.91   16.731998  ( -2.434903  -1.907945   2.676376)
  45:      3134.27    0.074745  (  0.077723  -0.084793  -0.248020)
  46:      3135.68    8.275620  (  1.472358   2.371405   0.695859)
  47:      3140.15    6.922429  ( -1.212118   2.022315  -1.167665)
  48:      3147.11    2.269357  (  0.481174  -0.200023  -1.413442)
  49:      3208.36    0.156703  ( -0.206514   0.272450   0.199566)
  50:      3239.75    0.136764  ( -0.043241   0.359752   0.073973)
  51:      3408.00   23.038415  ( -1.011873   2.141245   4.174877)
  52:      3483.30  116.728311  ( -5.113781   6.849779  -6.607427)
  53:      3491.22   90.070562  (  7.398677   5.943285  -0.086652)

The first frequency considered to be a vibration is 6
The total number of vibrations considered is 48


--------------------------
THERMOCHEMISTRY AT 298.15K
--------------------------

Temperature         ... 298.15 K
Pressure            ... 1.00 atm
Total Mass          ... 86.16 AMU

Throughout the following assumptions are being made:
  (1) The electronic state is orbitally nondegenerate
  (2) There are no thermally accessible electronically excited states
  (3) Hindered rotations indicated by low frequency modes) are not
      treated as such but are treated as vibrations and this may
      case some error
  (4) All equations used are the standard statistical mechanics
      equations for an ideal gas
  (5) All vibrations are strinctly harmonic


------------
INNER ENERGY
------------

The inner energy is: U= E(el) + E(ZPE) + E(vib) + E(rot) + E(trans)
    E(el)   - is the total energy from the electronic structure calculation
              = E(kin-el) + E(nuc-el) + E(el-el) + E(nuc-nuc)
    E(ZPE)  - the the zero temperature vibrational energy from the frequency calculation
    E(vib)  - the the finite temperature correction to E(ZPE) due to population
              of excietd vibrational states
    E(rot)  - is the rotational thermal energy
    E(trans)- is the translational thermal energy

Summary of contributions to the inner energy U:
Electronic energy                ...   -252.02713485 Eh
Zero point energy                ...      0.16952442 Eh     106.38 kcal/mol
Thermal vibrational correction   ...      0.00459495 Eh       2.88 kcal/mol
Thermal rotational correction    ...      0.00141627 Eh       0.89 kcal/mol
Thermal translational correction ...      0.00141627 Eh       0.89 kcal/mol
-----------------------------------------------------------------------
Total thermal energy                   -251.85018294 Eh


Summary of corrections to the electronic energy:
(perhaps to be used in another calculation)
Total thermal correction                  0.00742750 Eh       4.66 kcal/mol
Non-thermal (ZPE) correction              0.16952442 Eh     106.38 kcal/mol
-----------------------------------------------------------------------
Total correction                          0.17695191 Eh     111.04 kcal/mol


--------
ENTHALPY
--------

The enthalpy is H = U + kB*T
                kB is Boltzmann's constant
Total free energy                 ...   -251.85018294 Eh 
Thermal Enthalpy correction       ...      0.00094421 Eh       0.59 kcal/mol
-----------------------------------------------------------------------
Total Enthalpy                    ...   -251.84923873 Eh


-------
ENTROPY
-------

The entropy contributions are T*S = T*(S(el)+S(vib)+S(rot)+S(trans)
     S(el)   - electronic entropy
     S(vib)  - vibrational entropy
     S(rot)  - rotational entropy
     S(trans)- translational entropy
The entropies will be listed as mutliplied by the temperature to get
units of energy

Electronic entropy                ...      0.00000000 Eh      0.00 kcal/mol
Vibrational entropy               ...      0.00745594 Eh      4.68 kcal/mol
Rotational entropy                ...      0.01161613 Eh      7.29 kcal/mol
Translational entropy             ...      0.01866024 Eh     11.71 kcal/mol
-----------------------------------------------------------------------
Final entropy term                ...      0.03773231 Eh     23.68 kcal/mol


CAUTION: The rotational entropy is not quite correctly treated here
         because it includes a symmetry number that is not yet correctly
         implemented in ORCA!
For a nonlinear molecule the correct rotational entropy is:
    S(rot) = R*(ln(qrot/sn)+1.5)
    R    = 8.31441 J/mol/K = 1.987191683e-3 kcal/mol/K
    qrot = 147484.0544202
    sn is the rotational symmetry number. We have assumed 3 here
       if it is different for your molecule then you should correct
       the printed rotational entropy by manually evaluating the equation
       as given above

For convenience we print out the resulting values for sn=1 - 12:
 sn= 1  qrot/sn=  147484.0544 T*S(rot)=     7.94 kcal/mol T*S(tot)=    24.33 kcal/mol
 sn= 2  qrot/sn=   73742.0272 T*S(rot)=     7.53 kcal/mol T*S(tot)=    23.92 kcal/mol
 sn= 3  qrot/sn=   49161.3515 T*S(rot)=     7.29 kcal/mol T*S(tot)=    23.68 kcal/mol
 sn= 4  qrot/sn=   36871.0136 T*S(rot)=     7.12 kcal/mol T*S(tot)=    23.51 kcal/mol
 sn= 5  qrot/sn=   29496.8109 T*S(rot)=     6.99 kcal/mol T*S(tot)=    23.37 kcal/mol
 sn= 6  qrot/sn=   24580.6757 T*S(rot)=     6.88 kcal/mol T*S(tot)=    23.27 kcal/mol
 sn= 7  qrot/sn=   21069.1506 T*S(rot)=     6.79 kcal/mol T*S(tot)=    23.18 kcal/mol
 sn= 8  qrot/sn=   18435.5068 T*S(rot)=     6.71 kcal/mol T*S(tot)=    23.10 kcal/mol
 sn= 9  qrot/sn=   16387.1172 T*S(rot)=     6.64 kcal/mol T*S(tot)=    23.03 kcal/mol
 sn=10  qrot/sn=   14748.4054 T*S(rot)=     6.58 kcal/mol T*S(tot)=    22.96 kcal/mol
 sn=11  qrot/sn=   13407.6413 T*S(rot)=     6.52 kcal/mol T*S(tot)=    22.91 kcal/mol
 sn=12  qrot/sn=   12290.3379 T*S(rot)=     6.47 kcal/mol T*S(tot)=    22.86 kcal/mol


-------------------
GIBBS FREE ENTHALPY
-------------------

The Gibbs free enthalpy is G = H - T*S

Total enthalpy                    ...   -251.84923873 Eh 
Total entropy correction          ...     -0.03773231 Eh    -23.68 kcal/mol
-----------------------------------------------------------------------
Final Gibbs free enthalpy         ...   -251.88697104 Eh

For completeness - the Gibbs free enthalpy minus the electronic energy
G-E(el)                           ...      0.14016382 Eh     87.95 kcal/mol


Timings for individual modules:

Sum of individual times         ...     1668.393 sec (=  27.807 min)
GTO integral calculation        ...        6.819 sec (=   0.114 min)   0.4 %
SCF iterations                  ...      133.521 sec (=   2.225 min)   8.0 %
SCF Gradient evaluation         ...       84.871 sec (=   1.415 min)   5.1 %
Geometry relaxation             ...        0.257 sec (=   0.004 min)   0.0 %
Analytical frequency calculation...     1442.925 sec (=  24.049 min)  86.5 %
                             ****ORCA TERMINATED NORMALLY****
TOTAL RUN TIME: 0 days 0 hours 27 minutes 50 seconds 21 msec
