
                                 *****************
                                 * O   R   C   A *
                                 *****************

           --- An Ab Initio, DFT and Semiempirical electronic structure package ---

                  #######################################################
                  #                        -***-                        #
                  #  Department of molecular theory and spectroscopy    #
                  #              Directorship: Frank Neese              #
                  # Max Planck Institute for Chemical Energy Conversion #
                  #                  D-45470 Muelheim/Ruhr              #
                  #                       Germany                       #
                  #                                                     #
                  #                  All rights reserved                #
                  #                        -***-                        #
                  #######################################################


                         Program Version 3.0.3 - RELEASE   -


 With contributions from (in alphabetic order):
   Ute Becker             : Parallelization
   Dmytro Bykov           : SCF Hessian
   Dmitry Ganyushin       : Spin-Orbit,Spin-Spin,Magnetic field MRCI
   Andreas Hansen         : Spin unrestricted coupled pair/coupled cluster methods
   Dimitrios Liakos       : Extrapolation schemes; parallel MDCI
   Robert Izsak           : Overlap fitted RIJCOSX, COSX-SCS-MP3
   Christian Kollmar      : KDIIS, OOCD, Brueckner-CCSD(T), CCSD density
   Simone Kossmann        : Meta GGA functionals, TD-DFT gradient, OOMP2, MP2 Hessian
   Taras Petrenko         : DFT Hessian,TD-DFT gradient, ASA and ECA modules, normal mode analysis, Resonance Raman, ABS, FL, XAS/XES, NRVS
   Christoph Reimann      : Effective Core Potentials
   Michael Roemelt        : Restricted open shell CIS
   Christoph Riplinger    : Improved optimizer, TS searches, QM/MM, DLPNO-CCSD
   Barbara Sandhoefer     : DKH picture change effects
   Igor Schapiro          : Molecular dynamics
   Kantharuban Sivalingam : CASSCF convergence, NEVPT2
   Boris Wezisla          : Elementary symmetry handling
   Frank Wennmohs         : Technical directorship


 We gratefully acknowledge several colleagues who have allowed us to
 interface, adapt or use parts of their codes:
   Stefan Grimme, W. Hujo, H. Kruse, T. Risthaus : VdW corrections, initial TS optimization,
                                                   DFT functionals, gCP
   Ed Valeev                                     : LibInt (2-el integral package), F12 methods
   Garnet Chan, S. Sharma, R. Olivares           : DMRG
   Ulf Ekstrom                                   : XCFun DFT Library
   Mihaly Kallay                                 : mrcc  (arbitrary order and MRCC methods)
   Andreas Klamt, Michael Diedenhofen            : otool_cosmo (COSMO solvation model)
   Frank Weinhold                                : gennbo (NPA and NBO analysis)
   Christopher J. Cramer and Donald G. Truhlar   : smd solvation model


 Your calculation uses the libint2 library for the computation of 2-el integrals
 For citations please refer to: http://libint.valeyev.net

 This ORCA versions uses:
   CBLAS   interface :  Fast vector & matrix operations
   LAPACKE interface :  Fast linear algebra routines
   SCALAPACK package :  Parallel linear algebra routines


Your calculation utilizes the basis: Ahlrichs-TZV
Cite in your paper:
H - Kr: A. Schaefer, H. Horn and R. Ahlrichs, J. Chem. Phys. 97, 2571 (1992).

The def2-TZV basis will be loaded
Cite in your paper:
 	F. Weigend, R. Ahlrichs, Phys. Chem. Chem. Phys. 2005, 7, 3297.

================================================================================
                                        WARNINGS
                       Please study these warnings very carefully!
================================================================================
Now building the actual basis set
WARNING: Geometry optimizations can change the point-group symmetry!

WARNING: Geometry Optimization
  ===> : Switching off AutoStart
         For restart on a previous wavefunction, please use MOREAD


INFO   : the flag for use of LIBINT has been found!

================================================================================
                                       INPUT FILE
================================================================================
NAME = 0439_+.inp
|  1> ! NORI PBE0 def2-TZVP UseSym TightOPT Freq TightSCF Grid3 FinalGrid5 XYZFile
|  2> % pal
|  3>     nprocs 8
|  4> end
|  5> %method
|  6>     SymThresh 5.0e-2
|  7> end
|  8> % geom 
|  9>     MaxIter 10
| 10> end 
| 11> % maxcore 2000
| 12> % output
| 13>     printlevel mini
| 14>     print[ P_Basis ] 0
| 15>     print[ P_SCFInfo ] 1
| 16>     print[ P_SCFIterInfo ] 1
| 17>     print[ P_OrbEn ] 0
| 18>     print[ P_Cartesian ] 0
| 19> end
| 20> % elprop
| 21>     Dipole false
| 22> end
| 23> *xyz 1 1
| 24>  C        0.9309866534    -0.0903859099    -0.1115407398 
| 25>  C        2.4510341028     0.0286507899    -0.0910915569 
| 26>  C        2.9417358083     1.0901082901    -1.0682302284 
| 27>  C        2.9816766102     0.2095965398     1.3322029578 
| 28>  C        4.4847534685     0.2080446299     1.4879378506 
| 29>  N        2.4464880932     1.5160163925     1.8942682650 
| 30>  H        0.5905111476    -0.4058189746    -1.0982134815 
| 31>  H        0.4287689805     0.8666946380     0.0784291096 
| 32>  H        0.5651131698    -0.8259341612     0.6095996253 
| 33>  H        2.8648146794    -0.9361070880    -0.4044860410 
| 34>  H        2.5452872473     2.0876174061    -0.8416390235 
| 35>  H        2.5892631505     0.8552656530    -2.0733452436 
| 36>  H        4.0298271469     1.1529303849    -1.1167093440 
| 37>  H        2.5395659693    -0.5586560864     1.9721030253 
| 38>  H        4.9597313130     1.0250178075     0.9405456351 
| 39>  H        4.8836068793    -0.7281607955     1.0951776364 
| 40>  H        4.7832934166     0.2714117619     2.5372523056 
| 41>  H        2.8173988970     2.3059940910     1.3618943077 
| 42>  H        2.7150908226     1.6410809954     2.8711630186 
| 43>  H        1.4265924438     1.5456236356     1.8297319218 
| 44> *
| 45> 
| 46>                          ****END OF INPUT****
================================================================================

The point group is C1 - hence turning off symmetry
If this is a round-off problem, please increase the symmetry
        detection tolerance (%method SymThresh)


                       *****************************
                       * Geometry Optimization Run *
                       *****************************

Geometry optimization settings:
Update method            Update   .... BFGS
Choice of coordinates    CoordSys .... Redundant Internals
Initial Hessian          InHess   .... Almoef's Model

Convergence Tolerances:
Energy Change            TolE     ....  1.0000e-06 Eh
Max. Gradient            TolMAXG  ....  1.0000e-04 Eh/bohr
RMS Gradient             TolRMSG  ....  3.0000e-05 Eh/bohr
Max. Displacement        TolMAXD  ....  1.0000e-03 bohr
RMS Displacement         TolRMSD  ....  6.0000e-04 bohr

------------------------------------------------------------------------------
                        ORCA OPTIMIZATION COORDINATE SETUP
------------------------------------------------------------------------------

The optimization will be done in new redundant internal coordinates
Making redundant internal coordinates   ...  (new redundants) done
Evaluating the initial hessian          ...  (Almloef) done
Evaluating the coordinates              ...  done
Calculating the B-matrix                .... done
Calculating the G-matrix                .... done
Diagonalizing the G-matrix              .... done
The first mode is                       ....   46
The number of degrees of freedom        ....   54

    -----------------------------------------------------------------
                    Redundant Internal Coordinates


    -----------------------------------------------------------------
         Definition                    Initial Value    Approx d2E/dq
    -----------------------------------------------------------------
      1. B(C   1,C   0)                  1.5248         0.380726   
      2. B(C   2,C   1)                  1.5239         0.382037   
      3. B(C   3,C   1)                  1.5297         0.373938   
      4. B(C   4,C   3)                  1.5111         0.400399   
      5. B(N   5,C   3)                  1.5196         0.347667   
      6. B(H   6,C   0)                  1.0904         0.359588   
      7. B(H   7,C   0)                  1.0974         0.350426   
      8. B(H   8,C   0)                  1.0931         0.355980   
      9. B(H   9,C   1)                  1.0955         0.352857   
     10. B(H  10,C   2)                  1.0971         0.350881   
     11. B(H  11,C   2)                  1.0907         0.359164   
     12. B(H  12,C   2)                  1.0910         0.358805   
     13. B(H  13,C   3)                  1.0932         0.355856   
     14. B(H  14,C   4)                  1.0921         0.357330   
     15. B(H  15,C   4)                  1.0908         0.359055   
     16. B(H  16,C   4)                  1.0928         0.356421   
     17. B(H  17,N   5)                  1.0223         0.413617   
     18. B(H  18,N   5)                  1.0208         0.415817   
     19. B(H  19,N   5)                  1.0224         0.413493   
     20. A(C   1,C   0,H   6)          110.2422         0.325255   
     21. A(C   1,C   0,H   7)          112.6932         0.323879   
     22. A(C   1,C   0,H   8)          112.1685         0.324716   
     23. A(H   7,C   0,H   8)          108.6306         0.289077   
     24. A(H   6,C   0,H   8)          107.3247         0.290250   
     25. A(H   6,C   0,H   7)          105.4285         0.289535   
     26. A(C   2,C   1,C   3)          113.7348         0.364807   
     27. A(C   3,C   1,H   9)          103.8458         0.323291   
     28. A(C   0,C   1,H   9)          107.6937         0.324247   
     29. A(C   2,C   1,H   9)          107.9595         0.324430   
     30. A(C   0,C   1,C   3)          111.5619         0.364592   
     31. A(C   0,C   1,C   2)          111.5164         0.365932   
     32. A(H  11,C   2,H  12)          107.0828         0.290556   
     33. A(H  10,C   2,H  12)          108.4959         0.289495   
     34. A(H  10,C   2,H  11)          105.6243         0.289540   
     35. A(C   1,C   2,H  11)          109.6855         0.325376   
     36. A(C   1,C   2,H  10)          112.6147         0.324131   
     37. A(C   1,C   2,H  12)          112.9391         0.325322   
     38. A(N   5,C   3,H  13)          104.1954         0.318001   
     39. A(C   4,C   3,N   5)          108.2453         0.360938   
     40. A(C   4,C   3,H  13)          109.9506         0.327401   
     41. A(C   1,C   3,H  13)          108.7353         0.323740   
     42. A(C   1,C   3,N   5)          108.8850         0.356762   
     43. A(C   1,C   3,C   4)          116.1552         0.367753   
     44. A(H  15,C   4,H  16)          107.1946         0.290238   
     45. A(H  14,C   4,H  16)          108.6080         0.290019   
     46. A(C   3,C   4,H  16)          111.7547         0.327486   
     47. A(H  14,C   4,H  15)          107.6108         0.290354   
     48. A(C   3,C   4,H  15)          109.1160         0.327884   
     49. A(C   3,C   4,H  14)          112.3449         0.327624   
     50. A(C   3,N   5,H  17)          110.1180         0.323171   
     51. A(H  18,N   5,H  19)          108.6232         0.299163   
     52. A(H  17,N   5,H  19)          107.8603         0.298911   
     53. A(C   3,N   5,H  19)          110.6646         0.323155   
     54. A(H  17,N   5,H  18)          107.9516         0.299177   
     55. A(C   3,N   5,H  18)          111.5073         0.323452   
     56. D(C   3,C   1,C   0,H   8)    -49.7250         0.011550   
     57. D(H   9,C   1,C   0,H   7)   -173.4103         0.011550   
     58. D(C   3,C   1,C   0,H   7)     73.2515         0.011550   
     59. D(H   9,C   1,C   0,H   8)     63.6131         0.011550   
     60. D(C   3,C   1,C   0,H   6)   -169.2615         0.011550   
     61. D(C   2,C   1,C   0,H   8)   -178.1140         0.011550   
     62. D(C   2,C   1,C   0,H   7)    -55.1374         0.011550   
     63. D(C   2,C   1,C   0,H   6)     62.3496         0.011550   
     64. D(H   9,C   1,C   0,H   6)    -55.9233         0.011550   
     65. D(H  11,C   2,C   1,C   3)    175.6073         0.011626   
     66. D(H  10,C   2,C   1,H   9)    178.2574         0.011626   
     67. D(H  10,C   2,C   1,C   0)     60.1440         0.011626   
     68. D(H  11,C   2,C   1,C   0)    -57.1724         0.011626   
     69. D(H  11,C   2,C   1,H   9)     60.9410         0.011626   
     70. D(H  12,C   2,C   1,H   9)    -58.4121         0.011626   
     71. D(H  12,C   2,C   1,C   3)     56.2542         0.011626   
     72. D(H  12,C   2,C   1,C   0)   -176.5255         0.011626   
     73. D(H  10,C   2,C   1,C   3)    -67.0763         0.011626   
     74. D(H  13,C   3,C   1,C   2)    177.0215         0.011164   
     75. D(H  13,C   3,C   1,C   0)     49.8249         0.011164   
     76. D(N   5,C   3,C   1,H   9)   -178.8314         0.011164   
     77. D(N   5,C   3,C   1,C   2)     64.0852         0.011164   
     78. D(N   5,C   3,C   1,C   0)    -63.1114         0.011164   
     79. D(C   4,C   3,C   1,C   2)    -58.3700         0.011164   
     80. D(C   4,C   3,C   1,H   9)     58.7134         0.011164   
     81. D(H  13,C   3,C   1,H   9)    -65.8951         0.011164   
     82. D(C   4,C   3,C   1,C   0)    174.4333         0.011164   
     83. D(H  15,C   4,C   3,C   1)    -57.6309         0.012719   
     84. D(H  14,C   4,C   3,H  13)   -174.3949         0.012719   
     85. D(H  14,C   4,C   3,N   5)    -61.1688         0.012719   
     86. D(H  14,C   4,C   3,C   1)     61.6221         0.012719   
     87. D(H  16,C   4,C   3,H  13)    -52.0185         0.012719   
     88. D(H  16,C   4,C   3,N   5)     61.2077         0.012719   
     89. D(H  16,C   4,C   3,C   1)   -176.0014         0.012719   
     90. D(H  15,C   4,C   3,H  13)     66.3520         0.012719   
     91. D(H  15,C   4,C   3,N   5)    179.5781         0.012719   
     92. D(H  19,N   5,C   3,H  13)    -61.5111         0.011150   
     93. D(H  19,N   5,C   3,C   4)   -178.5102         0.011150   
     94. D(H  19,N   5,C   3,C   1)     54.3820         0.011150   
     95. D(H  18,N   5,C   3,H  13)     59.5178         0.011150   
     96. D(H  18,N   5,C   3,C   4)    -57.4813         0.011150   
     97. D(H  18,N   5,C   3,C   1)    175.4109         0.011150   
     98. D(H  17,N   5,C   3,H  13)    179.3295         0.011150   
     99. D(H  17,N   5,C   3,C   4)     62.3304         0.011150   
    100. D(H  17,N   5,C   3,C   1)    -64.7774         0.011150   
    -----------------------------------------------------------------

Number of atoms                         .... 20
Number of degrees of freedom            .... 100

         *************************************************************
         *                GEOMETRY OPTIMIZATION CYCLE   1            *
         *************************************************************


           ************************************************************
           *        Program running with 8 parallel MPI-processes     *
           *              working on a common directory               *
           ************************************************************
           ************************************************************
           *              Shut down parallel processing               *
           ************************************************************


           ************************************************************
           *        Program running with 8 parallel MPI-processes     *
           *              working on a common directory               *
           ************************************************************
------------
SCF SETTINGS
------------
Hamiltonian:
 Density Functional     Method          .... DFT(GTOs)
 Exchange Functional    Exchange        .... PBE
   PBE kappa parameter  XKappa          ....  0.804000
 Correlation Functional Correlation     .... PBE
 LDA part of GGA corr.  LDAOpt          .... PW91-LDA
 Gradients option       PostSCFGGA      .... off
 Hybrid DFT is turned on
   Fraction HF Exchange ScalHFX         ....  0.250000
   Scaling of DF-GGA-X  ScalDFX         ....  0.750000
   Scaling of DF-GGA-C  ScalDFC         ....  1.000000
   Scaling of DF-LDA-C  ScalLDAC        ....  1.000000
   Perturbative correction              ....  0.000000
   NL short-range parameter             ....  6.900000


General Settings:
 Integral files         IntName         .... 0439_+
 Hartree-Fock type      HFTyp           .... RHF
 Total Charge           Charge          ....    1
 Multiplicity           Mult            ....    1
 Number of Electrons    NEL             ....   50
 Basis Dimension        Dim             ....  270
 Nuclear Repulsion      ENuc            ....    277.4387277488 Eh

Convergence Acceleration:
 DIIS                   CNVDIIS         .... on
   Start iteration      DIISMaxIt       ....    12
   Startup error        DIISStart       ....  0.200000
   # of expansion vecs  DIISMaxEq       ....     5
   Bias factor          DIISBfac        ....   1.050
   Max. coefficient     DIISMaxC        ....  10.000
 Newton-Raphson         CNVNR           .... off
 SOSCF                  CNVSOSCF        .... on
   Start iteration      SOSCFMaxIt      ....   150
   Startup grad/error   SOSCFStart      ....  0.003300
 Level Shifting         CNVShift        .... on
   Level shift para.    LevelShift      ....    0.2500
   Turn off err/grad.   ShiftErr        ....    0.0010
 Zerner damping         CNVZerner       .... off
 Static damping         CNVDamp         .... on
   Fraction old density DampFac         ....    0.7000
   Max. Damping (<1)    DampMax         ....    0.9800
   Min. Damping (>=0)   DampMin         ....    0.0000
   Turn off err/grad.   DampErr         ....    0.1000
 Fernandez-Rico         CNVRico         .... off

SCF Procedure:
 Maximum # iterations   MaxIter         ....   125
 SCF integral mode      SCFMode         .... Direct
   Integral package                     .... LIBINT
 Reset frequeny         DirectResetFreq ....    20
 Integral Threshold     Thresh          ....  2.500e-11 Eh
 Primitive CutOff       TCut            ....  2.500e-12 Eh

Convergence Tolerance:
 Convergence Check Mode ConvCheckMode   .... Total+1el-Energy
 Energy Change          TolE            ....  1.000e-08 Eh
 1-El. energy change                    ....  1.000e-05 Eh
 Orbital Gradient       TolG            ....  1.000e-05
 Orbital Rotation angle TolX            ....  1.000e-05
 DIIS Error             TolErr          ....  5.000e-07


Diagonalization of the overlap matrix:
Smallest eigenvalue                        ... 1.455e-04
Time for diagonalization                   ...    0.017 sec
Threshold for overlap eigenvalues          ... 1.000e-08
Number of eigenvalues below threshold      ... 0
Time for construction of square roots      ...    0.007 sec
Total time needed                          ...    0.025 sec

-------------------
DFT GRID GENERATION
-------------------

General Integration Accuracy     IntAcc      ...  4.340
Radial Grid Type                 RadialGrid  ... Gauss-Chebyshev
Angular Grid (max. acc.)         AngularGrid ... Lebedev-194
Angular grid pruning method      GridPruning ... 3 (G Style)
Weight generation scheme         WeightScheme... Becke
Basis function cutoff            BFCut       ...    1.0000e-11
Integration weight cutoff        WCut        ...    1.0000e-14
Grids for H and He will be reduced by one unit

# of grid points (after initial pruning)     ...  41124 (   0.0 sec)
# of grid points (after weights+screening)   ...  37110 (   0.0 sec)
nearest neighbour list constructed           ...    0.0 sec
Grid point re-assignment to atoms done       ...    0.0 sec
Grid point division into batches done        ...    0.0 sec
Reduced shell lists constructed in    0.1 sec

Total number of grid points                  ...    37110
Total number of batches                      ...      590
Average number of points per batch           ...       62
Average number of grid points per atom       ...     1856
Average number of shells per batch           ...   102.08 (83.67%)
Average number of basis functions per batch  ...   235.28 (87.14%)
Average number of large shells per batch     ...    83.43 (81.73%)
Average number of large basis fcns per batch ...   190.92 (81.15%)
Maximum spatial batch extension              ...   2.16,  2.23,  2.15 au
Average spatial batch extension              ...   0.15,  0.15,  0.14 au

Time for grid setup =    0.183 sec

Loading Hartree-Fock densities                     ... done
Calculating cut-offs                               ... done
Setting up the integral package                    ... done
Initializing the effective Hamiltonian             ... done
Starting the Coulomb interaction                   ... done (   0.0 sec)
Reading the grid                                   ... done
Mapping shells                                     ... done
Starting the XC term evaluation                    ... done (   0.2 sec)
  promolecular density results
     # of electrons  =     50.993006561
     EX              =    -36.301203156
     EC              =     -1.663688692
     EX+EC           =    -37.964891848
Transforming the Hamiltonian                       ... done (   0.0 sec)
Diagonalizing the Hamiltonian                      ... done (   0.0 sec)
Back transforming the eigenvectors                 ... done (   0.0 sec)
Now organizing SCF variables                       ... done
--------------
SCF ITERATIONS
--------------
ITER       Energy         Delta-E        Max-DP      RMS-DP      [F,P]     Damp
               ***  Starting incremental Fock matrix formation  ***
  0   -253.0717680268   0.000000000000 0.05027015  0.00095280  0.1795865 0.7000
  1   -253.1593103787  -0.087542351921 0.04780495  0.00075207  0.0960524 0.7000
                               ***Turning on DIIS***
  2   -253.1974937776  -0.038183398879 0.09132384  0.00143309  0.0387140 0.0000
  3   -253.2517084969  -0.054214719279 0.02781817  0.00045326  0.0501844 0.0000
  4   -253.2660227882  -0.014314291342 0.01319417  0.00016139  0.0083045 0.0000
                      *** Initiating the SOSCF procedure ***
                           *** Shutting down DIIS ***
                      *** Re-Reading the Fockian *** 
                      *** Removing any level shift *** 
ITER      Energy       Delta-E        Grad      Rot      Max-DP    RMS-DP
  5   -253.26654058  -0.0005177875  0.000503  0.000503  0.002075  0.000049
               *** Restarting incremental Fock matrix formation ***
  6   -253.26657507  -0.0000344932  0.000172  0.000404  0.001546  0.000034
  7   -253.26657628  -0.0000012119  0.000155  0.000113  0.000545  0.000008
  8   -253.26657842  -0.0000021411  0.000032  0.000040  0.000087  0.000002
  9   -253.26657843  -0.0000000083  0.000027  0.000018  0.000031  0.000001
                  ***Gradient check signals convergence***
              ***Rediagonalizing the Fockian in SOSCF/NRSCF***

               *****************************************************
               *                     SUCCESS                       *
               *           SCF CONVERGED AFTER  10 CYCLES          *
               *****************************************************

Setting up the final grid:

General Integration Accuracy     IntAcc      ...  5.010
Radial Grid Type                 RadialGrid  ... Gauss-Chebyshev
Angular Grid (max. acc.)         AngularGrid ... Lebedev-434
Angular grid pruning method      GridPruning ... 3 (G Style)
Weight generation scheme         WeightScheme... Becke
Basis function cutoff            BFCut       ...    1.0000e-11
Integration weight cutoff        WCut        ...    1.0000e-14
Grids for H and He will be reduced by one unit

# of grid points (after initial pruning)     ... 157768 (   0.0 sec)
# of grid points (after weights+screening)   ... 140490 (   0.1 sec)
nearest neighbour list constructed           ...    0.0 sec
Grid point re-assignment to atoms done       ...    0.0 sec
Grid point division into batches done        ...    0.8 sec
Reduced shell lists constructed in    1.0 sec

Total number of grid points                  ...   140490
Total number of batches                      ...     2205
Average number of points per batch           ...       63
Average number of grid points per atom       ...     7024
Average number of shells per batch           ...   101.62 (83.30%)
Average number of basis functions per batch  ...   234.62 (86.90%)
Average number of large shells per batch     ...    83.00 (81.67%)
Average number of large basis fcns per batch ...   190.73 (81.29%)
Maximum spatial batch extension              ...   2.36,  1.93,  1.79 au
Average spatial batch extension              ...   0.10,  0.10,  0.10 au

Final grid set up in    1.2 sec
Final integration                            ... done (   1.3 sec)
Change in XC energy                          ...     0.000306049
Integrated number of electrons               ...    50.000001109
Previous integrated no of electrons          ...    49.999549428
Total Energy       :         -253.26627240 Eh           -6891.72564 eV
  Last Energy change         ...   -1.9802e-08  Tolerance :   1.0000e-08
  Last MAX-Density change    ...    2.2249e-05  Tolerance :   1.0000e-07
             **** THE GBW FILE WAS UPDATED (0439_+.gbw) ****
             **** DENSITY FILE WAS UPDATED (0439_+.scfp.tmp) ****
             **** ENERGY FILE WAS UPDATED (0439_+.en.tmp) ****
Total SCF time: 0 days 0 hours 0 min 50 sec 
           ************************************************************
           *              Shut down parallel processing               *
           ************************************************************

-------------------------   --------------------
FINAL SINGLE POINT ENERGY      -253.266272401309
-------------------------   --------------------



           ************************************************************
           *        Program running with 8 parallel MPI-processes     *
           *              working on a common directory               *
           ************************************************************
------------------------------------------------------------------------------
                         ORCA SCF GRADIENT CALCULATION
------------------------------------------------------------------------------

Gradient of the Kohn-Sham DFT energy:
Kohn-Sham wavefunction type      ... RKS
Hartree-Fock exchange scaling    ...    0.250
Number of operators              ...    1
Number of atoms                  ...   20
Basis set dimensions             ...  270
Integral neglect threshold       ... 2.5e-11
Integral primitive cutoff        ... 2.5e-12

Nuclear repulsion gradient       ... done
One Electron Gradient            ... done
Pre-screening matrix             ... done
Starting the two electron gradient:
Two electron gradient done
Exchange-correlation gradient    ... done

------------------
CARTESIAN GRADIENT
------------------

   1   C   :   -0.000117496    0.000058015    0.000047611
   2   C   :    0.000189064   -0.000095353    0.000207085
   3   C   :    0.000025547    0.000406355   -0.000095855
   4   C   :    0.000035073    0.000068748   -0.000088989
   5   C   :    0.000209969   -0.000176323    0.000074040
   6   N   :   -0.000043423    0.000059947    0.000005503
   7   H   :   -0.000055469    0.000013992    0.000142084
   8   H   :    0.000075611   -0.000074243   -0.000103793
   9   H   :   -0.000008122    0.000029923   -0.000003209
  10   H   :   -0.000089952   -0.000031896   -0.000055440
  11   H   :    0.000035923   -0.000145607    0.000048908
  12   H   :    0.000011351   -0.000060131    0.000051900
  13   H   :   -0.000100897   -0.000062702   -0.000004438
  14   H   :   -0.000060233   -0.000058051   -0.000031477
  15   H   :   -0.000028406    0.000036997   -0.000041411
  16   H   :   -0.000127050    0.000111000   -0.000076546
  17   H   :    0.000009609    0.000010240   -0.000006332
  18   H   :   -0.000073673   -0.000010448   -0.000013785
  19   H   :   -0.000101407   -0.000021757    0.000054877
  20   H   :    0.000213980   -0.000058706   -0.000110734

Norm of the cartesian gradient     ...    0.000783370
RMS gradient                       ...    0.000101133
MAX gradient                       ...    0.000406355

-------
TIMINGS
-------

Total SCF gradient time            ...       24.717 sec

One electron gradient       ....       0.146 sec  (  0.6%)
Prescreening matrices       ....       0.385 sec  (  1.6%)
Two electron gradient       ....      20.411 sec  ( 82.6%)
XC gradient                 ....       3.269 sec  ( 13.2%)
           ************************************************************
           *              Shut down parallel processing               *
           ************************************************************
------------------------------------------------------------------------------
                         ORCA GEOMETRY RELAXATION STEP
------------------------------------------------------------------------------

Reading the OPT-File                    .... done
Getting information on internals        .... done
Copying old internal coords+grads       .... done
Making the new internal coordinates     .... (new redundants).... done
Validating the new internal coordinates .... (new redundants).... done
Calculating the B-matrix                .... done
Calculating the G,G- and P matrices     .... done
Transforming gradient to internals      .... done
Projecting the internal gradient        .... done
Number of atoms                         ....  20
Number of internal coordinates          .... 100
Current Energy                          ....  -253.266272401 Eh
Current gradient norm                   ....     0.000783370 Eh/bohr
Maximum allowed component of the step   ....  0.300
Current trust radius                    ....  0.300
Evaluating the initial hessian          ....  (Almloef) done
Projecting the Hessian                  .... done
Forming the augmented Hessian           .... done
Diagonalizing the augmented Hessian     .... done
Last element of RFO vector              ....  0.999972342
Lowest eigenvalues of augmented Hessian:
 -0.000002029  0.011150445  0.011164129  0.011550590  0.011625981
Length of the computed step             ....  0.007437573
The final length of the internal step   ....  0.007437573
Converting the step to cartesian space:
 Initial RMS(Int)=    0.0007437573
Transforming coordinates:
 Iter   0:  RMS(Cart)=    0.0014052076 RMS(Int)=    0.0007437449
 Iter   1:  RMS(Cart)=    0.0000007962 RMS(Int)=    0.0000005526
 Iter   2:  RMS(Cart)=    0.0000000010 RMS(Int)=    0.0000000007
done
Storing new coordinates                 .... done

                                .--------------------.
          ----------------------|Geometry convergence|---------------------
          Item                value                 Tolerance   Converged
          -----------------------------------------------------------------
          RMS gradient        0.00006347            0.00003000      NO
          MAX gradient        0.00020891            0.00010000      NO
          RMS step            0.00074376            0.00060000      NO
          MAX step            0.00180362            0.00100000      NO
          ....................................................
          Max(Bonds)      0.0003      Max(Angles)    0.04
          Max(Dihed)        0.10      Max(Improp)    0.00
          -----------------------------------------------------------------

The optimization has not yet converged - more geometry cycles are needed


    ---------------------------------------------------------------------------
                         Redundant Internal Coordinates
                            (Angstroem and degrees)

        Definition                    Value    dE/dq     Step     New-Value
    ----------------------------------------------------------------------------
     1. B(C   1,C   0)                1.5248 -0.000098  0.0001    1.5250   
     2. B(C   2,C   1)                1.5239 -0.000110  0.0002    1.5241   
     3. B(C   3,C   1)                1.5297 -0.000209  0.0003    1.5300   
     4. B(C   4,C   3)                1.5111 -0.000062  0.0001    1.5112   
     5. B(N   5,C   3)                1.5196 -0.000050  0.0001    1.5196   
     6. B(H   6,C   0)                1.0904 -0.000146  0.0002    1.0906   
     7. B(H   7,C   0)                1.0974 -0.000006  0.0000    1.0974   
     8. B(H   8,C   0)                1.0931  0.000022 -0.0000    1.0931   
     9. B(H   9,C   1)                1.0955  0.000048 -0.0001    1.0955   
    10. B(H  10,C   2)                1.0971  0.000138 -0.0002    1.0969   
    11. B(H  11,C   2)                1.0907 -0.000015  0.0000    1.0907   
    12. B(H  12,C   2)                1.0910  0.000103 -0.0002    1.0908   
    13. B(H  13,C   3)                1.0932 -0.000080  0.0001    1.0933   
    14. B(H  14,C   4)                1.0921 -0.000020  0.0000    1.0921   
    15. B(H  15,C   4)                1.0908  0.000148 -0.0002    1.0906   
    16. B(H  16,C   4)                1.0928 -0.000003  0.0000    1.0928   
    17. B(H  17,N   5)                1.0223  0.000035 -0.0000    1.0222   
    18. B(H  18,N   5)                1.0208  0.000072 -0.0001    1.0207   
    19. B(H  19,N   5)                1.0224  0.000204 -0.0003    1.0221   
    20. A(C   1,C   0,H   6)          110.24 -0.000020    0.01    110.25   
    21. A(C   1,C   0,H   7)          112.69  0.000107   -0.02    112.67   
    22. A(C   1,C   0,H   8)          112.17 -0.000026   -0.00    112.17   
    23. A(H   7,C   0,H   8)          108.63  0.000005   -0.02    108.61   
    24. A(H   6,C   0,H   8)          107.32  0.000016   -0.00    107.32   
    25. A(H   6,C   0,H   7)          105.43 -0.000089    0.03    105.46   
    26. A(C   2,C   1,C   3)          113.73 -0.000016    0.01    113.74   
    27. A(C   3,C   1,H   9)          103.85  0.000012    0.00    103.85   
    28. A(C   0,C   1,H   9)          107.69  0.000024   -0.01    107.68   
    29. A(C   2,C   1,H   9)          107.96 -0.000040    0.01    107.97   
    30. A(C   0,C   1,C   3)          111.56 -0.000041    0.01    111.57   
    31. A(C   0,C   1,C   2)          111.52  0.000060   -0.02    111.50   
    32. A(H  11,C   2,H  12)          107.08 -0.000037   -0.00    107.08   
    33. A(H  10,C   2,H  12)          108.50 -0.000065    0.01    108.51   
    34. A(H  10,C   2,H  11)          105.62 -0.000092    0.03    105.65   
    35. A(C   1,C   2,H  11)          109.69  0.000051   -0.01    109.68   
    36. A(C   1,C   2,H  10)          112.61  0.000059   -0.01    112.61   
    37. A(C   1,C   2,H  12)          112.94  0.000067   -0.02    112.92   
    38. A(N   5,C   3,H  13)          104.20  0.000045   -0.01    104.18   
    39. A(C   4,C   3,N   5)          108.25  0.000054   -0.01    108.24   
    40. A(C   4,C   3,H  13)          109.95 -0.000047   -0.00    109.95   
    41. A(C   1,C   3,H  13)          108.74  0.000019   -0.01    108.73   
    42. A(C   1,C   3,N   5)          108.89 -0.000143    0.04    108.93   
    43. A(C   1,C   3,C   4)          116.16  0.000068   -0.01    116.14   
    44. A(H  15,C   4,H  16)          107.19 -0.000067    0.02    107.21   
    45. A(H  14,C   4,H  16)          108.61 -0.000003    0.00    108.61   
    46. A(C   3,C   4,H  16)          111.75 -0.000050    0.01    111.77   
    47. A(H  14,C   4,H  15)          107.61 -0.000074    0.01    107.62   
    48. A(C   3,C   4,H  15)          109.12  0.000132   -0.02    109.09   
    49. A(C   3,C   4,H  14)          112.34  0.000055   -0.01    112.33   
    50. A(C   3,N   5,H  17)          110.12 -0.000052    0.02    110.14   
    51. A(H  18,N   5,H  19)          108.62  0.000094   -0.03    108.59   
    52. A(H  17,N   5,H  19)          107.86  0.000059   -0.00    107.86   
    53. A(C   3,N   5,H  19)          110.66 -0.000121    0.02    110.68   
    54. A(H  17,N   5,H  18)          107.95 -0.000024    0.01    107.96   
    55. A(C   3,N   5,H  18)          111.51  0.000050   -0.01    111.49   
    56. D(C   3,C   1,C   0,H   8)    -49.73 -0.000014   -0.06    -49.79   
    57. D(H   9,C   1,C   0,H   7)   -173.41  0.000060   -0.10   -173.51   
    58. D(C   3,C   1,C   0,H   7)     73.25  0.000053   -0.10     73.15   
    59. D(H   9,C   1,C   0,H   8)     63.61 -0.000008   -0.06     63.55   
    60. D(C   3,C   1,C   0,H   6)   -169.26 -0.000004   -0.07   -169.33   
    61. D(C   2,C   1,C   0,H   8)   -178.11 -0.000008   -0.07   -178.18   
    62. D(C   2,C   1,C   0,H   7)    -55.14  0.000060   -0.10    -55.24   
    63. D(C   2,C   1,C   0,H   6)     62.35  0.000002   -0.07     62.28   
    64. D(H   9,C   1,C   0,H   6)    -55.92  0.000002   -0.07    -55.99   
    65. D(H  11,C   2,C   1,C   3)    175.61  0.000025   -0.01    175.60   
    66. D(H  10,C   2,C   1,H   9)    178.26  0.000001   -0.00    178.25   
    67. D(H  10,C   2,C   1,C   0)     60.14 -0.000037    0.01     60.16   
    68. D(H  11,C   2,C   1,C   0)    -57.17  0.000007   -0.01    -57.18   
    69. D(H  11,C   2,C   1,H   9)     60.94  0.000046   -0.03     60.91   
    70. D(H  12,C   2,C   1,H   9)    -58.41  0.000013   -0.01    -58.42   
    71. D(H  12,C   2,C   1,C   3)     56.25 -0.000007    0.01     56.26   
    72. D(H  12,C   2,C   1,C   0)   -176.53 -0.000026    0.01   -176.52   
    73. D(H  10,C   2,C   1,C   3)    -67.08 -0.000019    0.01    -67.06   
    74. D(H  13,C   3,C   1,C   2)    177.02  0.000013    0.04    177.06   
    75. D(H  13,C   3,C   1,C   0)     49.82 -0.000021    0.05     49.88   
    76. D(N   5,C   3,C   1,H   9)   -178.83 -0.000026    0.07   -178.76   
    77. D(N   5,C   3,C   1,C   2)     64.09  0.000024    0.04     64.13   
    78. D(N   5,C   3,C   1,C   0)    -63.11 -0.000010    0.05    -63.06   
    79. D(C   4,C   3,C   1,C   2)    -58.37  0.000018    0.03    -58.34   
    80. D(C   4,C   3,C   1,H   9)     58.71 -0.000032    0.05     58.76   
    81. D(H  13,C   3,C   1,H   9)    -65.90 -0.000036    0.07    -65.83   
    82. D(C   4,C   3,C   1,C   0)    174.43 -0.000016    0.04    174.47   
    83. D(H  15,C   4,C   3,C   1)    -57.63 -0.000081    0.10    -57.53   
    84. D(H  14,C   4,C   3,H  13)   -174.39 -0.000011    0.07   -174.33   
    85. D(H  14,C   4,C   3,N   5)    -61.17  0.000047    0.04    -61.12   
    86. D(H  14,C   4,C   3,C   1)     61.62 -0.000051    0.08     61.71   
    87. D(H  16,C   4,C   3,H  13)    -52.02 -0.000013    0.06    -51.95   
    88. D(H  16,C   4,C   3,N   5)     61.21  0.000046    0.04     61.25   
    89. D(H  16,C   4,C   3,C   1)   -176.00 -0.000052    0.08   -175.92   
    90. D(H  15,C   4,C   3,H  13)     66.35 -0.000042    0.08     66.43   
    91. D(H  15,C   4,C   3,N   5)    179.58  0.000017    0.06    179.64   
    92. D(H  19,N   5,C   3,H  13)    -61.51 -0.000044    0.08    -61.43   
    93. D(H  19,N   5,C   3,C   4)   -178.51 -0.000037    0.09   -178.42   
    94. D(H  19,N   5,C   3,C   1)     54.38 -0.000063    0.08     54.46   
    95. D(H  18,N   5,C   3,H  13)     59.52  0.000026    0.04     59.56   
    96. D(H  18,N   5,C   3,C   4)    -57.48  0.000033    0.05    -57.43   
    97. D(H  18,N   5,C   3,C   1)    175.41  0.000007    0.04    175.45   
    98. D(H  17,N   5,C   3,H  13)    179.33 -0.000007    0.06    179.39   
    99. D(H  17,N   5,C   3,C   4)     62.33 -0.000000    0.07     62.40   
   100. D(H  17,N   5,C   3,C   1)    -64.78 -0.000026    0.06    -64.72   
    ----------------------------------------------------------------------------

         *************************************************************
         *                GEOMETRY OPTIMIZATION CYCLE   2            *
         *************************************************************
---------------------------------
CARTESIAN COORDINATES (ANGSTROEM)
---------------------------------
  C      1.892645   -0.000578   -0.662087
  C      0.374948   -0.030198   -0.807919
  C     -0.138428   -1.449742   -1.017882
  C     -0.314871    0.710982    0.339163
  C     -1.815000    0.857702    0.230408
  N      0.000105    0.000520    1.645049
  H      2.366757   -0.363953   -1.574551
  H      2.253710   -0.659684    0.137629
  H      2.269768    1.008961   -0.479123
  H      0.114392    0.558103   -1.694509
  H      0.110082   -2.115832   -0.182628
  H      0.339553   -1.887130   -1.895331
  H     -1.215499   -1.491570   -1.185444
  H      0.149058    1.694710    0.450769
  H     -2.326431   -0.107185    0.216854
  H     -2.056539    1.372417   -0.700225
  H     -2.223768    1.457590    1.047266
  H     -0.405925   -0.937617    1.642080
  H     -0.379861    0.505474    2.446655
  H      1.010075   -0.095465    1.769316

----------------------------
CARTESIAN COORDINATES (A.U.)
----------------------------
  NO LB      ZA    FRAG    MASS        X           Y           Z
   0 C     6.0000    0    12.011          3.576581469972914         -0.001092688230342         -1.251162528966096
   1 C     6.0000    0    12.011          0.708549397895709         -0.057065289430281         -1.526746012490476
   2 C     6.0000    0    12.011         -0.261591842746492         -2.739615007079922         -1.923517640680249
   3 C     6.0000    0    12.011         -0.595019580855322          1.343561655328005          0.640924629053977
   4 C     6.0000    0    12.011         -3.429853582704882          1.620821322721961          0.435408189929610
   5 N     7.0000    0    14.007          0.000199359765861          0.000982659919856          3.108692640164191
   6 H     1.0000    0     1.008          4.472522416595374         -0.687771033828666         -2.975470456995527
   7 H     1.0000    0     1.008          4.258894925198907         -1.246622491889130          0.260080710646010
   8 H     1.0000    0     1.008          4.289239043529188          1.906659501788448         -0.905411089385271
   9 H     1.0000    0     1.008          0.216169048911183          1.054661711112138         -3.202158652806275
  10 H     1.0000    0     1.008          0.208025632366032         -3.998343181910593         -0.345117349665227
  11 H     1.0000    0     1.008          0.641662378800321         -3.566159162348749         -3.581656462473449
  12 H     1.0000    0     1.008         -2.296960861787519         -2.818659360437216         -2.240164909537175
  13 H     1.0000    0     1.008          0.281679077708025          3.202538177595533          0.851830146803965
  14 H     1.0000    0     1.008         -4.396317649287862         -0.202549609067067          0.409793952659766
  15 H     1.0000    0     1.008         -3.886295912961152          2.593493212817825         -1.323232866652851
  16 H     1.0000    0     1.008         -4.202312703317230          2.754445292673981          1.979046069737390
  17 H     1.0000    0     1.008         -0.767087532345696         -1.771839792191872          3.103082115051485
  18 H     1.0000    0     1.008         -0.717834035329049          0.955206581217170          4.623508736712058
  19 H     1.0000    0     1.008          1.908765977654649         -0.180403021441154          3.343523100239590

--------------------------------
INTERNAL COORDINATES (ANGSTROEM)
--------------------------------
 C      0   0   0   0.000000     0.000     0.000
 C      1   0   0   1.524975     0.000     0.000
 C      2   1   0   1.524056   111.500     0.000
 C      2   1   3   1.530031   111.568   128.390
 C      4   2   1   1.511206   116.144   174.472
 N      4   2   1   1.519640   108.925   296.943
 H      1   2   3   1.090603   110.253    62.279
 H      1   2   3   1.097421   112.673   304.759
 H      1   2   3   1.093099   112.167   181.821
 H      2   1   3   1.095459   107.679   241.728
 H      3   2   1   1.096851   112.607    60.159
 H      3   2   1   1.090730   109.677   302.819
 H      3   2   1   1.090829   112.922   183.483
 H      4   2   1   1.093347   108.728    49.879
 H      5   4   2   1.092131   112.332    61.706
 H      5   4   2   1.090574   109.092   302.468
 H      5   4   2   1.092801   111.766   184.082
 H      6   4   2   1.022238   110.135   295.283
 H      6   4   2   1.020747   111.495   175.453
 H      6   4   2   1.022103   110.683    54.461

---------------------------
INTERNAL COORDINATES (A.U.)
---------------------------
 C      0   0   0   0.000000     0.000     0.000
 C      1   0   0   2.881785     0.000     0.000
 C      2   1   0   2.880048   111.500     0.000
 C      2   1   3   2.891339   111.568   128.390
 C      4   2   1   2.855765   116.144   174.472
 N      4   2   1   2.871704   108.925   296.943
 H      1   2   3   2.060940   110.253    62.279
 H      1   2   3   2.073826   112.673   304.759
 H      1   2   3   2.065658   112.167   181.821
 H      2   1   3   2.070117   107.679   241.728
 H      3   2   1   2.072748   112.607    60.159
 H      3   2   1   2.061181   109.677   302.819
 H      3   2   1   2.061369   112.922   183.483
 H      4   2   1   2.066126   108.728    49.879
 H      5   4   2   2.063829   112.332    61.706
 H      5   4   2   2.060885   109.092   302.468
 H      5   4   2   2.065094   111.766   184.082
 H      6   4   2   1.931751   110.135   295.283
 H      6   4   2   1.928933   111.495   175.453
 H      6   4   2   1.931495   110.683    54.461



           ************************************************************
           *        Program running with 8 parallel MPI-processes     *
           *              working on a common directory               *
           ************************************************************
           ************************************************************
           *              Shut down parallel processing               *
           ************************************************************


           ************************************************************
           *        Program running with 8 parallel MPI-processes     *
           *              working on a common directory               *
           ************************************************************

Diagonalization of the overlap matrix:
Smallest eigenvalue                        ... 1.457e-04
Time for diagonalization                   ...    0.018 sec
Threshold for overlap eigenvalues          ... 1.000e-08
Number of eigenvalues below threshold      ... 0
Time for construction of square roots      ...    0.007 sec
Total time needed                          ...    0.025 sec

-------------------
DFT GRID GENERATION
-------------------

General Integration Accuracy     IntAcc      ...  4.340
Radial Grid Type                 RadialGrid  ... Gauss-Chebyshev
Angular Grid (max. acc.)         AngularGrid ... Lebedev-194
Angular grid pruning method      GridPruning ... 3 (G Style)
Weight generation scheme         WeightScheme... Becke
Basis function cutoff            BFCut       ...    1.0000e-11
Integration weight cutoff        WCut        ...    1.0000e-14
Grids for H and He will be reduced by one unit

# of grid points (after initial pruning)     ...  41124 (   0.0 sec)
# of grid points (after weights+screening)   ...  37112 (   0.0 sec)
nearest neighbour list constructed           ...    0.0 sec
Grid point re-assignment to atoms done       ...    0.0 sec
Grid point division into batches done        ...    0.0 sec
Reduced shell lists constructed in    0.1 sec

Total number of grid points                  ...    37112
Total number of batches                      ...      590
Average number of points per batch           ...       62
Average number of grid points per atom       ...     1856
Average number of shells per batch           ...   101.97 (83.58%)
Average number of basis functions per batch  ...   234.96 (87.02%)
Average number of large shells per batch     ...    83.39 (81.77%)
Average number of large basis fcns per batch ...   191.01 (81.30%)
Maximum spatial batch extension              ...   2.16,  2.23,  2.15 au
Average spatial batch extension              ...   0.15,  0.15,  0.14 au

Time for grid setup =    0.182 sec

--------------
SCF ITERATIONS
--------------
ITER       Energy         Delta-E        Max-DP      RMS-DP      [F,P]     Damp
               ***  Starting incremental Fock matrix formation  ***
                      *** Initiating the SOSCF procedure ***
                      *** Re-Reading the Fockian *** 
                      *** Removing any level shift *** 
ITER      Energy       Delta-E        Grad      Rot      Max-DP    RMS-DP
  0   -253.26657672 -253.2665767231  0.000090  0.000090  0.000556  0.000008
               *** Restarting incremental Fock matrix formation ***
  1   -253.26657804  -0.0000013123  0.000027  0.000045  0.000121  0.000003
  2   -253.26657815  -0.0000001141  0.000014  0.000020  0.000050  0.000001
  3   -253.26657815  -0.0000000019  0.000013  0.000010  0.000026  0.000001
                  ***Gradient check signals convergence***
              ***Rediagonalizing the Fockian in SOSCF/NRSCF***

               *****************************************************
               *                     SUCCESS                       *
               *           SCF CONVERGED AFTER   4 CYCLES          *
               *****************************************************

Setting up the final grid:

General Integration Accuracy     IntAcc      ...  5.010
Radial Grid Type                 RadialGrid  ... Gauss-Chebyshev
Angular Grid (max. acc.)         AngularGrid ... Lebedev-434
Angular grid pruning method      GridPruning ... 3 (G Style)
Weight generation scheme         WeightScheme... Becke
Basis function cutoff            BFCut       ...    1.0000e-11
Integration weight cutoff        WCut        ...    1.0000e-14
Grids for H and He will be reduced by one unit

# of grid points (after initial pruning)     ... 157768 (   0.0 sec)
# of grid points (after weights+screening)   ... 140488 (   0.1 sec)
nearest neighbour list constructed           ...    0.0 sec
Grid point re-assignment to atoms done       ...    0.0 sec
Grid point division into batches done        ...    0.8 sec
Reduced shell lists constructed in    1.1 sec

Total number of grid points                  ...   140488
Total number of batches                      ...     2204
Average number of points per batch           ...       63
Average number of grid points per atom       ...     7024
Average number of shells per batch           ...   101.63 (83.30%)
Average number of basis functions per batch  ...   234.64 (86.90%)
Average number of large shells per batch     ...    83.05 (81.72%)
Average number of large basis fcns per batch ...   190.87 (81.35%)
Maximum spatial batch extension              ...   2.36,  2.10,  1.79 au
Average spatial batch extension              ...   0.10,  0.10,  0.10 au

Final grid set up in    1.2 sec
Final integration                            ... done (   0.7 sec)
Change in XC energy                          ...     0.000304242
Integrated number of electrons               ...    50.000001387
Previous integrated no of electrons          ...    49.999536483
Total Energy       :         -253.26627392 Eh           -6891.72568 eV
  Last Energy change         ...   -9.4990e-09  Tolerance :   1.0000e-08
  Last MAX-Density change    ...    8.5791e-06  Tolerance :   1.0000e-07
             **** THE GBW FILE WAS UPDATED (0439_+.gbw) ****
             **** DENSITY FILE WAS UPDATED (0439_+.scfp.tmp) ****
             **** ENERGY FILE WAS UPDATED (0439_+.en.tmp) ****
Total SCF time: 0 days 0 hours 0 min 22 sec 
           ************************************************************
           *              Shut down parallel processing               *
           ************************************************************

-------------------------   --------------------
FINAL SINGLE POINT ENERGY      -253.266273918703
-------------------------   --------------------



           ************************************************************
           *        Program running with 8 parallel MPI-processes     *
           *              working on a common directory               *
           ************************************************************
------------------------------------------------------------------------------
                         ORCA SCF GRADIENT CALCULATION
------------------------------------------------------------------------------

Gradient of the Kohn-Sham DFT energy:
Kohn-Sham wavefunction type      ... RKS
Hartree-Fock exchange scaling    ...    0.250
Number of operators              ...    1
Number of atoms                  ...   20
Basis set dimensions             ...  270
Integral neglect threshold       ... 2.5e-11
Integral primitive cutoff        ... 2.5e-12

Nuclear repulsion gradient       ... done
One Electron Gradient            ... done
Pre-screening matrix             ... done
Starting the two electron gradient:
Two electron gradient done
Exchange-correlation gradient    ... done

------------------
CARTESIAN GRADIENT
------------------

   1   C   :   -0.000085083    0.000073916    0.000069524
   2   C   :    0.000110938   -0.000023569    0.000060740
   3   C   :   -0.000018557    0.000198155   -0.000022088
   4   C   :   -0.000018781    0.000010561   -0.000018241
   5   C   :    0.000115242   -0.000067978   -0.000017852
   6   N   :    0.000036907    0.000055208    0.000112635
   7   H   :    0.000017831   -0.000014919    0.000009251
   8   H   :    0.000045580   -0.000051948   -0.000054582
   9   H   :   -0.000010542   -0.000000225    0.000002738
  10   H   :   -0.000037005   -0.000045475   -0.000035973
  11   H   :    0.000006310   -0.000060299   -0.000027047
  12   H   :    0.000008561   -0.000049903    0.000020204
  13   H   :   -0.000000112   -0.000037952    0.000003007
  14   H   :   -0.000027769    0.000006973   -0.000009874
  15   H   :   -0.000022821    0.000017740   -0.000030867
  16   H   :   -0.000055120    0.000037888    0.000029280
  17   H   :   -0.000003754    0.000008572    0.000004366
  18   H   :   -0.000036201    0.000013684   -0.000012213
  19   H   :   -0.000022185   -0.000045802    0.000003351
  20   H   :   -0.000003436   -0.000024625   -0.000086356

Norm of the cartesian gradient     ...    0.000390932
RMS gradient                       ...    0.000050469
MAX gradient                       ...    0.000198155

-------
TIMINGS
-------

Total SCF gradient time            ...       24.415 sec

One electron gradient       ....       0.104 sec  (  0.4%)
Prescreening matrices       ....       0.168 sec  (  0.7%)
Two electron gradient       ....      20.468 sec  ( 83.8%)
XC gradient                 ....       3.269 sec  ( 13.4%)
           ************************************************************
           *              Shut down parallel processing               *
           ************************************************************
------------------------------------------------------------------------------
                         ORCA GEOMETRY RELAXATION STEP
------------------------------------------------------------------------------

Reading the OPT-File                    .... done
Getting information on internals        .... done
Copying old internal coords+grads       .... done
Making the new internal coordinates     .... (new redundants).... done
Validating the new internal coordinates .... (new redundants).... done
Calculating the B-matrix                .... done
Calculating the G,G- and P matrices     .... done
Transforming gradient to internals      .... done
Projecting the internal gradient        .... done
Number of atoms                         ....  20
Number of internal coordinates          .... 100
Current Energy                          ....  -253.266273919 Eh
Current gradient norm                   ....     0.000390932 Eh/bohr
Maximum allowed component of the step   ....  0.300
Current trust radius                    ....  0.300
Updating the Hessian (BFGS)             .... done
Forming the augmented Hessian           .... done
Diagonalizing the augmented Hessian     .... done
Last element of RFO vector              ....  0.999910650
Lowest eigenvalues of augmented Hessian:
 -0.000001580  0.006815874  0.011172634  0.011354960  0.011627304
Length of the computed step             ....  0.013368805
The final length of the internal step   ....  0.013368805
Converting the step to cartesian space:
 Initial RMS(Int)=    0.0013368805
Transforming coordinates:
 Iter   0:  RMS(Cart)=    0.0022574520 RMS(Int)=    0.0013368493
 Iter   1:  RMS(Cart)=    0.0000024188 RMS(Int)=    0.0000017309
 Iter   2:  RMS(Cart)=    0.0000000057 RMS(Int)=    0.0000000042
done
Storing new coordinates                 .... done

                                .--------------------.
          ----------------------|Geometry convergence|---------------------
          Item                value                 Tolerance   Converged
          -----------------------------------------------------------------
          Energy change      -0.00000152            0.00000100      NO
          RMS gradient        0.00002680            0.00003000      YES
          MAX gradient        0.00008321            0.00010000      YES
          RMS step            0.00133688            0.00060000      NO
          MAX step            0.00320203            0.00100000      NO
          ....................................................
          Max(Bonds)      0.0001      Max(Angles)    0.05
          Max(Dihed)        0.18      Max(Improp)    0.00
          -----------------------------------------------------------------

The optimization has not yet converged - more geometry cycles are needed


    ---------------------------------------------------------------------------
                         Redundant Internal Coordinates
                            (Angstroem and degrees)

        Definition                    Value    dE/dq     Step     New-Value
    ----------------------------------------------------------------------------
     1. B(C   1,C   0)                1.5250 -0.000031  0.0001    1.5251   
     2. B(C   2,C   1)                1.5241 -0.000033  0.0001    1.5242   
     3. B(C   3,C   1)                1.5300  0.000005  0.0001    1.5301   
     4. B(C   4,C   3)                1.5112 -0.000033  0.0001    1.5113   
     5. B(N   5,C   3)                1.5196  0.000003  0.0000    1.5197   
     6. B(H   6,C   0)                1.0906  0.000006  0.0001    1.0907   
     7. B(H   7,C   0)                1.0974  0.000007 -0.0000    1.0974   
     8. B(H   8,C   0)                1.0931 -0.000005  0.0000    1.0931   
     9. B(H   9,C   1)                1.0955  0.000013 -0.0001    1.0954   
    10. B(H  10,C   2)                1.0969  0.000022 -0.0001    1.0967   
    11. B(H  11,C   2)                1.0907  0.000005 -0.0000    1.0907   
    12. B(H  12,C   2)                1.0908  0.000001 -0.0001    1.0908   
    13. B(H  13,C   3)                1.0933 -0.000006  0.0001    1.0934   
    14. B(H  14,C   4)                1.0921 -0.000005  0.0000    1.0922   
    15. B(H  15,C   4)                1.0906  0.000007 -0.0001    1.0905   
    16. B(H  16,C   4)                1.0928  0.000009 -0.0000    1.0928   
    17. B(H  17,N   5)                1.0222 -0.000003 -0.0000    1.0222   
    18. B(H  18,N   5)                1.0207 -0.000010 -0.0000    1.0207   
    19. B(H  19,N   5)                1.0221 -0.000011 -0.0001    1.0220   
    20. A(C   1,C   0,H   6)          110.25  0.000005    0.01    110.26   
    21. A(C   1,C   0,H   7)          112.67  0.000056   -0.03    112.65   
    22. A(C   1,C   0,H   8)          112.17 -0.000016   -0.00    112.16   
    23. A(H   7,C   0,H   8)          108.61  0.000003   -0.02    108.59   
    24. A(H   6,C   0,H   8)          107.32  0.000003   -0.00    107.32   
    25. A(H   6,C   0,H   7)          105.46 -0.000056    0.05    105.50   
    26. A(C   2,C   1,C   3)          113.74  0.000008   -0.00    113.74   
    27. A(C   3,C   1,H   9)          103.85  0.000008   -0.00    103.85   
    28. A(C   0,C   1,H   9)          107.68  0.000013   -0.01    107.66   
    29. A(C   2,C   1,H   9)          107.97 -0.000028    0.03    108.00   
    30. A(C   0,C   1,C   3)          111.57 -0.000015    0.00    111.57   
    31. A(C   0,C   1,C   2)          111.50  0.000013   -0.01    111.49   
    32. A(H  11,C   2,H  12)          107.08 -0.000030    0.00    107.08   
    33. A(H  10,C   2,H  12)          108.51 -0.000046    0.02    108.52   
    34. A(H  10,C   2,H  11)          105.65 -0.000069    0.05    105.70   
    35. A(C   1,C   2,H  11)          109.68  0.000043   -0.02    109.66   
    36. A(C   1,C   2,H  10)          112.61  0.000049   -0.02    112.59   
    37. A(C   1,C   2,H  12)          112.92  0.000041   -0.03    112.90   
    38. A(N   5,C   3,H  13)          104.18  0.000019   -0.01    104.17   
    39. A(C   4,C   3,N   5)          108.24  0.000008   -0.00    108.24   
    40. A(C   4,C   3,H  13)          109.95 -0.000025    0.01    109.96   
    41. A(C   1,C   3,H  13)          108.73  0.000003   -0.01    108.72   
    42. A(C   1,C   3,N   5)          108.93 -0.000046    0.04    108.96   
    43. A(C   1,C   3,C   4)          116.14  0.000039   -0.02    116.12   
    44. A(H  15,C   4,H  16)          107.21 -0.000044    0.03    107.25   
    45. A(H  14,C   4,H  16)          108.61 -0.000006    0.00    108.61   
    46. A(C   3,C   4,H  16)          111.77 -0.000023    0.01    111.78   
    47. A(H  14,C   4,H  15)          107.62 -0.000043    0.01    107.63   
    48. A(C   3,C   4,H  15)          109.09  0.000073   -0.03    109.06   
    49. A(C   3,C   4,H  14)          112.33  0.000039   -0.02    112.31   
    50. A(C   3,N   5,H  17)          110.13 -0.000037    0.03    110.16   
    51. A(H  18,N   5,H  19)          108.59  0.000046   -0.04    108.55   
    52. A(H  17,N   5,H  19)          107.86  0.000038   -0.00    107.85   
    53. A(C   3,N   5,H  19)          110.68 -0.000083    0.03    110.72   
    54. A(H  17,N   5,H  18)          107.96 -0.000018    0.02    107.98   
    55. A(C   3,N   5,H  18)          111.49  0.000056   -0.03    111.47   
    56. D(C   3,C   1,C   0,H   8)    -49.79 -0.000000   -0.12    -49.91   
    57. D(H   9,C   1,C   0,H   7)   -173.51  0.000044   -0.18   -173.70   
    58. D(C   3,C   1,C   0,H   7)     73.15  0.000034   -0.17     72.97   
    59. D(H   9,C   1,C   0,H   8)     63.55  0.000009   -0.13     63.42   
    60. D(C   3,C   1,C   0,H   6)   -169.33  0.000002   -0.13   -169.46   
    61. D(C   2,C   1,C   0,H   8)   -178.18 -0.000010   -0.11   -178.29   
    62. D(C   2,C   1,C   0,H   7)    -55.24  0.000024   -0.16    -55.40   
    63. D(C   2,C   1,C   0,H   6)     62.28 -0.000007   -0.12     62.16   
    64. D(H   9,C   1,C   0,H   6)    -55.99  0.000012   -0.14    -56.13   
    65. D(H  11,C   2,C   1,C   3)    175.60  0.000015   -0.01    175.59   
    66. D(H  10,C   2,C   1,H   9)    178.25 -0.000009    0.01    178.26   
    67. D(H  10,C   2,C   1,C   0)     60.16 -0.000015    0.02     60.18   
    68. D(H  11,C   2,C   1,C   0)    -57.18  0.000012   -0.02    -57.20   
    69. D(H  11,C   2,C   1,H   9)     60.91  0.000018   -0.03     60.89   
    70. D(H  12,C   2,C   1,H   9)    -58.42 -0.000000   -0.00    -58.42   
    71. D(H  12,C   2,C   1,C   3)     56.26 -0.000004    0.02     56.28   
    72. D(H  12,C   2,C   1,C   0)   -176.52 -0.000006    0.00   -176.51   
    73. D(H  10,C   2,C   1,C   3)    -67.06 -0.000012    0.03    -67.03   
    74. D(H  13,C   3,C   1,C   2)    177.06  0.000006    0.07    177.13   
    75. D(H  13,C   3,C   1,C   0)     49.88 -0.000005    0.08     49.96   
    76. D(N   5,C   3,C   1,H   9)   -178.76 -0.000019    0.10   -178.66   
    77. D(N   5,C   3,C   1,C   2)     64.13  0.000006    0.07     64.20   
    78. D(N   5,C   3,C   1,C   0)    -63.06 -0.000006    0.09    -62.97   
    79. D(C   4,C   3,C   1,C   2)    -58.34  0.000004    0.06    -58.28   
    80. D(C   4,C   3,C   1,H   9)     58.76 -0.000020    0.09     58.86   
    81. D(H  13,C   3,C   1,H   9)    -65.83 -0.000018    0.10    -65.73   
    82. D(C   4,C   3,C   1,C   0)    174.47 -0.000007    0.08    174.55   
    83. D(H  15,C   4,C   3,C   1)    -57.53 -0.000040    0.17    -57.36   
    84. D(H  14,C   4,C   3,H  13)   -174.33 -0.000008    0.13   -174.20   
    85. D(H  14,C   4,C   3,N   5)    -61.12  0.000006    0.12    -61.01   
    86. D(H  14,C   4,C   3,C   1)     61.71 -0.000021    0.14     61.85   
    87. D(H  16,C   4,C   3,H  13)    -51.95 -0.000005    0.12    -51.83   
    88. D(H  16,C   4,C   3,N   5)     61.25  0.000009    0.11     61.36   
    89. D(H  16,C   4,C   3,C   1)   -175.92 -0.000018    0.14   -175.78   
    90. D(H  15,C   4,C   3,H  13)     66.43 -0.000027    0.15     66.58   
    91. D(H  15,C   4,C   3,N   5)    179.64 -0.000013    0.14    179.78   
    92. D(H  19,N   5,C   3,H  13)    -61.43 -0.000036    0.16    -61.28   
    93. D(H  19,N   5,C   3,C   4)   -178.42 -0.000021    0.15   -178.27   
    94. D(H  19,N   5,C   3,C   1)     54.46 -0.000044    0.16     54.62   
    95. D(H  18,N   5,C   3,H  13)     59.56  0.000003    0.10     59.66   
    96. D(H  18,N   5,C   3,C   4)    -57.43  0.000019    0.10    -57.33   
    97. D(H  18,N   5,C   3,C   1)    175.45 -0.000004    0.11    175.56   
    98. D(H  17,N   5,C   3,H  13)    179.39 -0.000008    0.12    179.51   
    99. D(H  17,N   5,C   3,C   4)     62.40  0.000008    0.12     62.52   
   100. D(H  17,N   5,C   3,C   1)    -64.72 -0.000015    0.12    -64.59   
    ----------------------------------------------------------------------------

         *************************************************************
         *                GEOMETRY OPTIMIZATION CYCLE   3            *
         *************************************************************
---------------------------------
CARTESIAN COORDINATES (ANGSTROEM)
---------------------------------
  C      1.892716   -0.001352   -0.661961
  C      0.374902   -0.029859   -0.808191
  C     -0.139106   -1.449175   -1.019181
  C     -0.314770    0.710869    0.339402
  C     -1.815097    0.856818    0.230789
  N      0.000641    0.000974    1.645516
  H      2.366954   -0.366414   -1.573762
  H      2.252419   -0.659170    0.139406
  H      2.270619    1.008119   -0.480224
  H      0.115217    0.559500   -1.694257
  H      0.108750   -2.115488   -0.184094
  H      0.338810   -1.885847   -1.897016
  H     -1.216103   -1.489916   -1.187091
  H      0.148854    1.694824    0.450872
  H     -2.325834   -0.108497    0.219673
  H     -2.056511    1.368915   -0.701202
  H     -2.224068    1.458352    1.046304
  H     -0.403087   -0.938145    1.642525
  H     -0.381102    0.505496    2.446536
  H      1.010568   -0.092500    1.771446

----------------------------
CARTESIAN COORDINATES (A.U.)
----------------------------
  NO LB      ZA    FRAG    MASS        X           Y           Z
   0 C     6.0000    0    12.011          3.576714340434553         -0.002555814631023         -1.250924629789682
   1 C     6.0000    0    12.011          0.708462466759153         -0.056424529185038         -1.527260045622006
   2 C     6.0000    0    12.011         -0.262871327222140         -2.738543571567567         -1.925973604171415
   3 C     6.0000    0    12.011         -0.594829395785359          1.343348422265819          0.641375914173519
   4 C     6.0000    0    12.011         -3.430036992401293          1.619150430500424          0.436128053667184
   5 N     7.0000    0    14.007          0.001210604895576          0.001840666201192          3.109574832629405
   6 H     1.0000    0     1.008          4.472893969327885         -0.692421820221357         -2.973978774718973
   7 H     1.0000    0     1.008          4.256455052860118         -1.245650034386777          0.263440054654193
   8 H     1.0000    0     1.008          4.290847739822452          1.905068743176022         -0.907491193157698
   9 H     1.0000    0     1.008          0.217729279620220          1.057302225605278         -3.201681287148956
  10 H     1.0000    0     1.008          0.205506830086610         -3.997692361444438         -0.347887735367683
  11 H     1.0000    0     1.008          0.640258273381038         -3.563734531503398         -3.584839837738653
  12 H     1.0000    0     1.008         -2.298100945465932         -2.815533523141477         -2.243277236069617
  13 H     1.0000    0     1.008          0.281293618306724          3.202753037687906          0.852024401448966
  14 H     1.0000    0     1.008         -4.395190137311231         -0.205028965876212          0.415121606560387
  15 H     1.0000    0     1.008         -3.886242704545207          2.586873788382707         -1.325080475393310
  16 H     1.0000    0     1.008         -4.202879754322143          2.755884985439812          1.977228671082347
  17 H     1.0000    0     1.008         -0.761723968431903         -1.772837458289990          3.103922479991638
  18 H     1.0000    0     1.008         -0.720178080628429          0.955249851893363          4.623283825318070
  19 H     1.0000    0     1.008          1.909696157682270         -0.174800063585319          3.347547300997731

--------------------------------
INTERNAL COORDINATES (ANGSTROEM)
--------------------------------
 C      0   0   0   0.000000     0.000     0.000
 C      1   0   0   1.525108     0.000     0.000
 C      2   1   0   1.524198   111.487     0.000
 C      2   1   3   1.530129   111.568   128.379
 C      4   2   1   1.511317   116.123   174.549
 N      4   2   1   1.519661   108.960   297.028
 H      1   2   3   1.090666   110.262    62.162
 H      1   2   3   1.097406   112.645   304.596
 H      1   2   3   1.093102   112.164   181.709
 H      2   1   3   1.095396   107.664   241.707
 H      3   2   1   1.096711   112.590    60.175
 H      3   2   1   1.090724   109.661   302.799
 H      3   2   1   1.090769   112.896   183.488
 H      4   2   1   1.093407   108.722    49.963
 H      5   4   2   1.092157   112.310    61.851
 H      5   4   2   1.090473   109.059   302.635
 H      5   4   2   1.092779   111.781   184.223
 H      6   4   2   1.022228   110.162   295.407
 H      6   4   2   1.020737   111.466   175.558
 H      6   4   2   1.022031   110.715    54.620

---------------------------
INTERNAL COORDINATES (A.U.)
---------------------------
 C      0   0   0   0.000000     0.000     0.000
 C      1   0   0   2.882036     0.000     0.000
 C      2   1   0   2.880317   111.487     0.000
 C      2   1   3   2.891525   111.568   128.379
 C      4   2   1   2.855975   116.123   174.549
 N      4   2   1   2.871744   108.960   297.028
 H      1   2   3   2.061060   110.262    62.162
 H      1   2   3   2.073796   112.645   304.596
 H      1   2   3   2.065663   112.164   181.709
 H      2   1   3   2.069998   107.664   241.707
 H      3   2   1   2.072484   112.590    60.175
 H      3   2   1   2.061170   109.661   302.799
 H      3   2   1   2.061254   112.896   183.488
 H      4   2   1   2.066241   108.722    49.963
 H      5   4   2   2.063878   112.310    61.851
 H      5   4   2   2.060696   109.059   302.635
 H      5   4   2   2.065053   111.781   184.223
 H      6   4   2   1.931731   110.162   295.407
 H      6   4   2   1.928913   111.466   175.558
 H      6   4   2   1.931360   110.715    54.620



           ************************************************************
           *        Program running with 8 parallel MPI-processes     *
           *              working on a common directory               *
           ************************************************************
           ************************************************************
           *              Shut down parallel processing               *
           ************************************************************


           ************************************************************
           *        Program running with 8 parallel MPI-processes     *
           *              working on a common directory               *
           ************************************************************

Diagonalization of the overlap matrix:
Smallest eigenvalue                        ... 1.458e-04
Time for diagonalization                   ...    0.018 sec
Threshold for overlap eigenvalues          ... 1.000e-08
Number of eigenvalues below threshold      ... 0
Time for construction of square roots      ...    0.007 sec
Total time needed                          ...    0.026 sec

-------------------
DFT GRID GENERATION
-------------------

General Integration Accuracy     IntAcc      ...  4.340
Radial Grid Type                 RadialGrid  ... Gauss-Chebyshev
Angular Grid (max. acc.)         AngularGrid ... Lebedev-194
Angular grid pruning method      GridPruning ... 3 (G Style)
Weight generation scheme         WeightScheme... Becke
Basis function cutoff            BFCut       ...    1.0000e-11
Integration weight cutoff        WCut        ...    1.0000e-14
Grids for H and He will be reduced by one unit

# of grid points (after initial pruning)     ...  41124 (   0.0 sec)
# of grid points (after weights+screening)   ...  37117 (   0.0 sec)
nearest neighbour list constructed           ...    0.0 sec
Grid point re-assignment to atoms done       ...    0.0 sec
Grid point division into batches done        ...    0.0 sec
Reduced shell lists constructed in    0.1 sec

Total number of grid points                  ...    37117
Total number of batches                      ...      590
Average number of points per batch           ...       62
Average number of grid points per atom       ...     1856
Average number of shells per batch           ...   101.95 (83.56%)
Average number of basis functions per batch  ...   234.88 (86.99%)
Average number of large shells per batch     ...    83.35 (81.76%)
Average number of large basis fcns per batch ...   191.05 (81.34%)
Maximum spatial batch extension              ...   2.16,  2.36,  2.15 au
Average spatial batch extension              ...   0.14,  0.14,  0.14 au

Time for grid setup =    0.184 sec

--------------
SCF ITERATIONS
--------------
ITER       Energy         Delta-E        Max-DP      RMS-DP      [F,P]     Damp
               ***  Starting incremental Fock matrix formation  ***
                      *** Initiating the SOSCF procedure ***
                      *** Re-Reading the Fockian *** 
                      *** Removing any level shift *** 
ITER      Energy       Delta-E        Grad      Rot      Max-DP    RMS-DP
  0   -253.26657320 -253.2665732023  0.000161  0.000161  0.000536  0.000012
               *** Restarting incremental Fock matrix formation ***
  1   -253.26657704  -0.0000038376  0.000053  0.000082  0.000170  0.000004
  2   -253.26657739  -0.0000003484  0.000008  0.000017  0.000037  0.000001
  3   -253.26657739  -0.0000000028  0.000010  0.000007  0.000015  0.000000
                  ***Gradient check signals convergence***
              ***Rediagonalizing the Fockian in SOSCF/NRSCF***

               *****************************************************
               *                     SUCCESS                       *
               *           SCF CONVERGED AFTER   4 CYCLES          *
               *****************************************************

Setting up the final grid:

General Integration Accuracy     IntAcc      ...  5.010
Radial Grid Type                 RadialGrid  ... Gauss-Chebyshev
Angular Grid (max. acc.)         AngularGrid ... Lebedev-434
Angular grid pruning method      GridPruning ... 3 (G Style)
Weight generation scheme         WeightScheme... Becke
Basis function cutoff            BFCut       ...    1.0000e-11
Integration weight cutoff        WCut        ...    1.0000e-14
Grids for H and He will be reduced by one unit

# of grid points (after initial pruning)     ... 157768 (   0.0 sec)
# of grid points (after weights+screening)   ... 140483 (   0.1 sec)
nearest neighbour list constructed           ...    0.0 sec
Grid point re-assignment to atoms done       ...    0.0 sec
Grid point division into batches done        ...    0.8 sec
Reduced shell lists constructed in    1.0 sec

Total number of grid points                  ...   140483
Total number of batches                      ...     2206
Average number of points per batch           ...       63
Average number of grid points per atom       ...     7024
Average number of shells per batch           ...   101.63 (83.30%)
Average number of basis functions per batch  ...   234.59 (86.88%)
Average number of large shells per batch     ...    83.06 (81.73%)
Average number of large basis fcns per batch ...   190.92 (81.39%)
Maximum spatial batch extension              ...   2.36,  2.04,  1.79 au
Average spatial batch extension              ...   0.10,  0.10,  0.10 au

Final grid set up in    1.2 sec
Final integration                            ... done (   0.7 sec)
Change in XC energy                          ...     0.000302469
Integrated number of electrons               ...    50.000000804
Previous integrated no of electrons          ...    49.999523096
Total Energy       :         -253.26627493 Eh           -6891.72571 eV
  Last Energy change         ...   -6.7784e-09  Tolerance :   1.0000e-08
  Last MAX-Density change    ...    6.2643e-06  Tolerance :   1.0000e-07
             **** THE GBW FILE WAS UPDATED (0439_+.gbw) ****
             **** DENSITY FILE WAS UPDATED (0439_+.scfp.tmp) ****
             **** ENERGY FILE WAS UPDATED (0439_+.en.tmp) ****
Total SCF time: 0 days 0 hours 0 min 23 sec 
           ************************************************************
           *              Shut down parallel processing               *
           ************************************************************

-------------------------   --------------------
FINAL SINGLE POINT ENERGY      -253.266274928473
-------------------------   --------------------



           ************************************************************
           *        Program running with 8 parallel MPI-processes     *
           *              working on a common directory               *
           ************************************************************
------------------------------------------------------------------------------
                         ORCA SCF GRADIENT CALCULATION
------------------------------------------------------------------------------

Gradient of the Kohn-Sham DFT energy:
Kohn-Sham wavefunction type      ... RKS
Hartree-Fock exchange scaling    ...    0.250
Number of operators              ...    1
Number of atoms                  ...   20
Basis set dimensions             ...  270
Integral neglect threshold       ... 2.5e-11
Integral primitive cutoff        ... 2.5e-12

Nuclear repulsion gradient       ... done
One Electron Gradient            ... done
Pre-screening matrix             ... done
Starting the two electron gradient:
Two electron gradient done
Exchange-correlation gradient    ... done

------------------
CARTESIAN GRADIENT
------------------

[...]
     54      -0.048492  -0.041631   0.619519   0.100258   0.002526   0.000059
     55       0.128642   0.095766   0.367829  -0.286711  -0.000603  -0.003033
     56      -0.101864  -0.076901   0.061709   0.192133   0.000185  -0.000534
     57       0.024862   0.031441  -0.066316   0.058055   0.010191  -0.000058
     58       0.062090   0.106801   0.209952   0.629743  -0.000197   0.001448
     59      -0.112450  -0.138306   0.438125   0.109138   0.008589   0.000213
                 48         49         50         51         52         53    
      0       0.001951  -0.011136   0.002289   0.021369  -0.001237   0.001860
      1       0.001435  -0.010127   0.010261   0.069958  -0.010588  -0.004788
      2      -0.000304   0.004658  -0.004737  -0.043094   0.001619  -0.006272
      3       0.002763  -0.017720   0.000496  -0.003976   0.003061   0.000411
      4      -0.006093   0.040746  -0.003365   0.009054  -0.007831  -0.000334
      5       0.008496  -0.063045   0.004152  -0.012731   0.011393   0.000455
      6       0.001992   0.006189  -0.001328   0.004483   0.035495  -0.011004
      7      -0.004231   0.009710   0.001196   0.000823   0.000105   0.004493
      8       0.002300   0.004679  -0.002836   0.010425   0.075051   0.015284
      9       0.003402  -0.002876  -0.034887   0.003158  -0.002110   0.006495
     10       0.004030  -0.005565  -0.073760   0.007625  -0.005295   0.013804
     11       0.001360  -0.002396  -0.007995   0.000438  -0.000448   0.002111
     12      -0.050971  -0.008075  -0.000500   0.000048   0.000885   0.005965
     13       0.002871  -0.000221   0.018033  -0.004534  -0.009222   0.070424
     14       0.006927   0.003508   0.004831  -0.000144  -0.004890   0.053951
     15       0.000097   0.000058   0.001089  -0.000437  -0.000099  -0.000438
     16      -0.000237   0.000012   0.002093  -0.000418   0.000177  -0.000036
     17       0.000067   0.000898   0.000438  -0.000074  -0.000099  -0.000091
     18      -0.009239   0.053311  -0.012336  -0.151577  -0.001827  -0.034140
     19       0.007848  -0.048981   0.015155   0.140760   0.000196   0.026473
     20       0.017833  -0.110885   0.025664   0.292467   0.007229   0.067349
     21      -0.003830   0.010721   0.021509   0.158018  -0.021782   0.000933
     22       0.006493  -0.018317  -0.039240  -0.284611   0.035282  -0.002868
     23      -0.007762   0.021295   0.049869   0.357181  -0.046257   0.001250
     24      -0.010893   0.065334  -0.031577  -0.254273   0.034656   0.011999
     25      -0.030814   0.187430  -0.094650  -0.694382   0.091300   0.032953
     26      -0.005689   0.035302  -0.018758  -0.135095   0.015799   0.004611
     27      -0.030050   0.213528  -0.012505   0.044550  -0.035691  -0.000984
     28       0.069237  -0.489695   0.033344  -0.096416   0.086149   0.003593
     29      -0.105814   0.751702  -0.053541   0.149269  -0.128392  -0.004808
     30      -0.014966   0.022523   0.005453  -0.011319  -0.098980  -0.011602
     31       0.040338  -0.060916  -0.014774   0.024997   0.271449   0.025149
     32      -0.051591   0.076137   0.019391  -0.033730  -0.338298  -0.028658
     33      -0.010725   0.063018  -0.009236   0.045572   0.281885   0.089008
     34       0.009650  -0.050114   0.007407  -0.038432  -0.243631  -0.080676
     35       0.022087  -0.107615   0.014333  -0.077663  -0.476741  -0.164435
     36       0.004050  -0.157252   0.019466  -0.090085  -0.605957   0.051579
     37      -0.001117  -0.000587   0.000307  -0.001549  -0.015860   0.001531
     38       0.000092  -0.021964   0.002473  -0.010479  -0.076848   0.011703
     39      -0.025244   0.035328   0.408172  -0.039492   0.026436  -0.077429
     40      -0.051133   0.072065   0.868595  -0.090134   0.056465  -0.156890
     41      -0.006931   0.007053   0.094529  -0.011371   0.006870  -0.018555
     42       0.270892   0.044150  -0.054150   0.013612   0.029229  -0.295351
     43       0.536675   0.086508  -0.110015   0.027243   0.052965  -0.559867
     44       0.008930   0.002000   0.000140   0.000220  -0.000956   0.004758
     45       0.090399   0.010606   0.010533  -0.004246  -0.003569  -0.035037
     46      -0.209410  -0.022291  -0.022761   0.009625   0.004913   0.093953
     47       0.387621   0.041098   0.054015  -0.019667  -0.012756  -0.131158
     48       0.228139   0.040438   0.053521  -0.010255  -0.035439   0.259114
     49      -0.356068  -0.063482  -0.079005   0.014767   0.050100  -0.377542
     50      -0.476897  -0.082407  -0.114543   0.021811   0.069412  -0.518849
     51      -0.000464  -0.002516  -0.011414   0.000293   0.001929   0.002854
     52       0.004624  -0.002485  -0.019926   0.002827  -0.000668  -0.001121
     53      -0.001122   0.000777  -0.006451   0.000839  -0.003762   0.003253
     54      -0.002001  -0.000071   0.002593   0.001562   0.000216  -0.001725
     55      -0.000019  -0.001005  -0.003915   0.000058   0.001539   0.000939
     56      -0.003677   0.000551   0.000596   0.000372   0.000990  -0.004876
     57      -0.000511   0.000647  -0.000854   0.004835   0.000186   0.002453
     58       0.000671   0.000101  -0.002012   0.002928  -0.001452  -0.001273
     59      -0.001767   0.001180   0.004664   0.004337  -0.000637  -0.001140
                 54         55         56         57         58         59    
      0      -0.017149  -0.001965   0.000234  -0.000372   0.000516   0.000345
      1       0.054647   0.005800   0.000200   0.000374  -0.000611  -0.000342
      2       0.069649   0.007818  -0.001528  -0.000297   0.000435   0.000229
      3       0.000707  -0.001032  -0.000044  -0.000069   0.000075   0.000044
      4      -0.000552   0.001077   0.000839   0.000143   0.000113  -0.000060
      5       0.002840  -0.000249  -0.001682  -0.000359  -0.000074  -0.000414
      6       0.009469  -0.075060   0.028838   0.000000  -0.000182   0.000094
      7      -0.002299   0.021390  -0.007252   0.000178   0.000423  -0.000275
      8       0.000836   0.033557  -0.010018   0.000037  -0.000157   0.000055
      9       0.001537  -0.000186   0.002790  -0.000003  -0.001010   0.000050
     10       0.002144  -0.000318   0.007143  -0.001854  -0.001550   0.000865
     11       0.000195  -0.000867  -0.000447   0.002100  -0.000015   0.000075
     12       0.000695   0.000045   0.006430   0.000195   0.000468   0.000246
     13       0.005344   0.007264   0.055518   0.000264   0.000469  -0.000405
     14       0.007295  -0.033946  -0.065562  -0.000221  -0.000055  -0.000461
     15       0.000097   0.000245   0.000594   0.011895  -0.067459  -0.040260
     16       0.000034  -0.000288  -0.000517  -0.024264  -0.043405   0.053818
     17      -0.000136   0.000132   0.000500   0.030238  -0.008194   0.044671
     18       0.376236   0.044734  -0.007273   0.001293  -0.000956  -0.000886
     19      -0.288393  -0.032770   0.005075  -0.000777   0.000954   0.000588
     20      -0.735950  -0.084979   0.013077  -0.000076  -0.001048  -0.000314
     21      -0.022991  -0.001275   0.003365   0.002910  -0.004325  -0.002177
     22       0.048039   0.004393  -0.005964  -0.004774   0.007295   0.004072
     23      -0.032192  -0.001601   0.006742   0.002776  -0.004600  -0.003037
     24      -0.155208  -0.015080  -0.001301   0.000072  -0.000499  -0.000206
     25      -0.412954  -0.040965  -0.002540   0.000839  -0.001451  -0.000595
     26      -0.061505  -0.006567  -0.000608  -0.000274   0.000413   0.000353
     27      -0.007551   0.003322   0.004406   0.001272  -0.000724  -0.000266
     28       0.015475  -0.006891  -0.011851  -0.001517  -0.000811   0.000337
     29      -0.025942   0.009267   0.020834  -0.000903   0.000287  -0.000425
     30      -0.005005  -0.005663   0.001165   0.000974   0.002296  -0.001078
     31       0.016711  -0.016535   0.009147  -0.001417  -0.004160   0.001804
     32      -0.021786   0.034556  -0.016872  -0.000475   0.001662  -0.001526
     33      -0.013054   0.281623  -0.093109   0.000353   0.000276  -0.000239
     34       0.010146  -0.258678   0.085519  -0.001038  -0.000567   0.000674
     35       0.025278  -0.538212   0.179209  -0.000330   0.001173   0.000099
     36      -0.096591   0.621949  -0.255150  -0.000729  -0.001282   0.000034
     37      -0.003200   0.018539  -0.006454   0.000203  -0.000128  -0.000074
     38      -0.015724   0.102621  -0.040980  -0.000421  -0.000730   0.000299
     39      -0.011721   0.000518  -0.036539   0.003626   0.007605  -0.002641
     40      -0.027733   0.000414  -0.071909   0.011454   0.016070  -0.008701
     41      -0.004037  -0.000016  -0.007040  -0.002774  -0.000596  -0.000500
     42      -0.025839  -0.012929  -0.205395  -0.000344  -0.000323   0.000415
     43      -0.047735  -0.025115  -0.391619  -0.002331  -0.003071   0.001825
     44       0.000917  -0.006151  -0.016465   0.000476   0.000234   0.000255
     45      -0.009363   0.074990   0.180637  -0.002439   0.000109   0.000153
     46       0.021584  -0.158934  -0.372047   0.001704  -0.000963  -0.000950
     47      -0.035499   0.287035   0.691462  -0.003099   0.002145   0.001701
     48       0.026663  -0.063403  -0.055557   0.000695  -0.000263  -0.000892
     49      -0.039615   0.099893   0.097514  -0.000293  -0.000235   0.002553
     50      -0.053257   0.125928   0.105449   0.000150   0.000182   0.003334
     51       0.000046  -0.000230   0.003272   0.246836   0.278032  -0.138444
     52      -0.000509   0.000937  -0.000547   0.559293   0.661322  -0.290632
     53       0.000647  -0.000502   0.001750   0.016008   0.007536   0.004935
     54      -0.000333   0.000741   0.001127   0.191730  -0.023740   0.328787
     55       0.000291  -0.000248   0.000799  -0.257699   0.007064  -0.435778
     56      -0.000440   0.000817   0.000633  -0.379770   0.022663  -0.673253
     57      -0.000159  -0.000922  -0.003653  -0.608573   0.682769   0.367598
     58       0.001013   0.000377  -0.000575   0.044175  -0.064398  -0.020392
     59      -0.001587   0.000746   0.000024  -0.066469   0.082947   0.053496


-----------
IR SPECTRUM
-----------

 Mode    freq (cm**-1)   T**2         TX         TY         TZ
-------------------------------------------------------------------
   6:        63.58    4.622046  (  1.404710   1.624200   0.103975)
   7:       190.51    0.504490  ( -0.409712  -0.579328   0.031714)
   8:       223.49    1.960511  ( -0.542922   0.550953   1.167132)
   9:       238.02    1.630847  (  0.863671   0.434892  -0.834139)
  10:       244.52    0.790025  ( -0.276823  -0.826038  -0.176224)
  11:       261.91   16.083139  (  1.432340  -1.233431  -3.536975)
  12:       280.11    4.958671  ( -0.721919   1.094492   1.799886)
  13:       341.38    3.970476  (  1.915134  -0.175744   0.521394)
  14:       389.34    3.146369  (  1.686206  -0.519722   0.181573)
  15:       476.03    1.061394  ( -0.728936  -0.725089   0.065514)
  16:       554.89    6.853451  (  0.007708   0.981291   2.427027)
  17:       737.00    1.385662  (  0.205777   1.105627   0.347717)
  18:       847.64    5.376413  (  1.418771  -0.594499   1.734956)
  19:       922.13    5.960695  ( -2.402202  -0.373806   0.224480)
  20:       930.23    0.021704  ( -0.054126   0.070984   0.117201)
  21:       942.88    4.758893  (  2.064474  -0.700456   0.078760)
  22:       962.54    5.738366  (  0.264131  -0.919858  -2.196011)
  23:       970.06    3.687348  (  1.733001  -0.195328  -0.803681)
  24:      1032.58    6.191230  (  0.280278   1.442859  -2.007693)
  25:      1059.47   10.200792  (  0.641984  -1.799245  -2.559563)
  26:      1153.51   26.120984  (  3.583632  -3.320148  -1.501726)
  27:      1170.97   10.074977  ( -1.999742  -0.241037   2.453143)
  28:      1206.06    1.371667  (  1.066720   0.466930  -0.125506)
  29:      1228.11    7.451290  ( -2.137064  -0.264724   1.677549)
  30:      1323.73    1.241301  ( -0.400350   0.451884   0.936388)
  31:      1358.10    0.976894  (  0.040549   0.703609   0.692953)
  32:      1381.04    1.010769  ( -0.036649   0.508449   0.866548)
  33:      1404.19    9.408016  ( -1.755827  -1.417378  -2.077530)
  34:      1407.25    6.112738  ( -1.549296  -1.923318   0.115180)
  35:      1422.01   30.965128  (  4.647014  -1.517125   2.658706)
  36:      1427.84   15.824632  (  0.436275  -1.917961  -3.457704)
  37:      1468.45    1.508257  ( -0.217896  -0.488014   1.105722)
  38:      1476.52  127.613853  (  0.389326  -3.260351  10.808903)
  39:      1483.54   22.773278  (  0.521866  -2.652310   3.932707)
  40:      1487.68   10.646997  ( -0.171872   1.944820   2.614409)
  41:      1494.97    7.526796  ( -2.262500  -1.551721   0.007336)
  42:      1502.67    6.305099  (  0.365329   2.403112  -0.629830)
  43:      1510.74   46.686411  ( -2.211051   4.404448  -4.732706)
  44:      1647.38   38.477613  (  4.804195   3.701777   1.301604)
  45:      1657.72   43.502140  ( -2.708611   3.625738   4.797873)
  46:      3025.61   15.425583  ( -1.842384   0.536021  -3.426935)
  47:      3033.97   18.339096  (  0.367038   2.598613  -3.384020)
  48:      3061.05    4.650970  ( -0.654709  -0.756817   1.910381)
  49:      3065.76    3.463397  ( -1.236072   1.164803  -0.760761)
  50:      3089.64    2.080238  ( -1.061409  -0.776878  -0.591700)
  51:      3104.74   14.353781  (  0.939279   3.356648  -1.484739)
  52:      3119.58   11.990582  (  1.905327  -1.377631   2.542134)
  53:      3136.29    6.847667  ( -0.410746   2.145760   1.440371)
  54:      3144.53    4.407011  (  0.306581   1.535950   1.397812)
  55:      3150.26    3.187417  ( -1.771276   0.220719  -0.035808)
  56:      3155.35    3.388912  (  1.738144   0.537554  -0.280720)
  57:      3421.32   23.992175  ( -1.998874   2.508987  -3.701575)
  58:      3501.99   77.960690  (  7.484003   4.656581   0.516365)
  59:      3518.57   98.444000  (  4.658803  -5.891472  -6.483064)

The first frequency considered to be a vibration is 6
The total number of vibrations considered is 54


--------------------------
THERMOCHEMISTRY AT 298.15K
--------------------------

Temperature         ... 298.15 K
Pressure            ... 1.00 atm
Total Mass          ... 88.17 AMU

Throughout the following assumptions are being made:
  (1) The electronic state is orbitally nondegenerate
  (2) There are no thermally accessible electronically excited states
  (3) Hindered rotations indicated by low frequency modes) are not
      treated as such but are treated as vibrations and this may
      case some error
  (4) All equations used are the standard statistical mechanics
      equations for an ideal gas
  (5) All vibrations are strinctly harmonic


------------
INNER ENERGY
------------

The inner energy is: U= E(el) + E(ZPE) + E(vib) + E(rot) + E(trans)
    E(el)   - is the total energy from the electronic structure calculation
              = E(kin-el) + E(nuc-el) + E(el-el) + E(nuc-nuc)
    E(ZPE)  - the the zero temperature vibrational energy from the frequency calculation
    E(vib)  - the the finite temperature correction to E(ZPE) due to population
              of excietd vibrational states
    E(rot)  - is the rotational thermal energy
    E(trans)- is the translational thermal energy

Summary of contributions to the inner energy U:
Electronic energy                ...   -253.26627534 Eh
Zero point energy                ...      0.19229888 Eh     120.67 kcal/mol
Thermal vibrational correction   ...      0.00556096 Eh       3.49 kcal/mol
Thermal rotational correction    ...      0.00141627 Eh       0.89 kcal/mol
Thermal translational correction ...      0.00141627 Eh       0.89 kcal/mol
-----------------------------------------------------------------------
Total thermal energy                   -253.06558296 Eh


Summary of corrections to the electronic energy:
(perhaps to be used in another calculation)
Total thermal correction                  0.00839350 Eh       5.27 kcal/mol
Non-thermal (ZPE) correction              0.19229888 Eh     120.67 kcal/mol
-----------------------------------------------------------------------
Total correction                          0.20069239 Eh     125.94 kcal/mol


--------
ENTHALPY
--------

The enthalpy is H = U + kB*T
                kB is Boltzmann's constant
Total free energy                 ...   -253.06558296 Eh 
Thermal Enthalpy correction       ...      0.00094421 Eh       0.59 kcal/mol
-----------------------------------------------------------------------
Total Enthalpy                    ...   -253.06463875 Eh


-------
ENTROPY
-------

The entropy contributions are T*S = T*(S(el)+S(vib)+S(rot)+S(trans)
     S(el)   - electronic entropy
     S(vib)  - vibrational entropy
     S(rot)  - rotational entropy
     S(trans)- translational entropy
The entropies will be listed as mutliplied by the temperature to get
units of energy

Electronic entropy                ...      0.00000000 Eh      0.00 kcal/mol
Vibrational entropy               ...      0.00965055 Eh      6.06 kcal/mol
Rotational entropy                ...      0.01177607 Eh      7.39 kcal/mol
Translational entropy             ...      0.01869299 Eh     11.73 kcal/mol
-----------------------------------------------------------------------
Final entropy term                ...      0.04011962 Eh     25.18 kcal/mol


CAUTION: The rotational entropy is not quite correctly treated here
         because it includes a symmetry number that is not yet correctly
         implemented in ORCA!
For a nonlinear molecule the correct rotational entropy is:
    S(rot) = R*(ln(qrot/sn)+1.5)
    R    = 8.31441 J/mol/K = 1.987191683e-3 kcal/mol/K
    qrot = 174708.5237240
    sn is the rotational symmetry number. We have assumed 3 here
       if it is different for your molecule then you should correct
       the printed rotational entropy by manually evaluating the equation
       as given above

For convenience we print out the resulting values for sn=1 - 12:
 sn= 1  qrot/sn=  174708.5237 T*S(rot)=     8.04 kcal/mol T*S(tot)=    25.83 kcal/mol
 sn= 2  qrot/sn=   87354.2619 T*S(rot)=     7.63 kcal/mol T*S(tot)=    25.42 kcal/mol
 sn= 3  qrot/sn=   58236.1746 T*S(rot)=     7.39 kcal/mol T*S(tot)=    25.18 kcal/mol
 sn= 4  qrot/sn=   43677.1309 T*S(rot)=     7.22 kcal/mol T*S(tot)=    25.00 kcal/mol
 sn= 5  qrot/sn=   34941.7047 T*S(rot)=     7.09 kcal/mol T*S(tot)=    24.87 kcal/mol
 sn= 6  qrot/sn=   29118.0873 T*S(rot)=     6.98 kcal/mol T*S(tot)=    24.76 kcal/mol
 sn= 7  qrot/sn=   24958.3605 T*S(rot)=     6.89 kcal/mol T*S(tot)=    24.67 kcal/mol
 sn= 8  qrot/sn=   21838.5655 T*S(rot)=     6.81 kcal/mol T*S(tot)=    24.59 kcal/mol
 sn= 9  qrot/sn=   19412.0582 T*S(rot)=     6.74 kcal/mol T*S(tot)=    24.52 kcal/mol
 sn=10  qrot/sn=   17470.8524 T*S(rot)=     6.68 kcal/mol T*S(tot)=    24.46 kcal/mol
 sn=11  qrot/sn=   15882.5931 T*S(rot)=     6.62 kcal/mol T*S(tot)=    24.41 kcal/mol
 sn=12  qrot/sn=   14559.0436 T*S(rot)=     6.57 kcal/mol T*S(tot)=    24.35 kcal/mol


-------------------
GIBBS FREE ENTHALPY
-------------------

The Gibbs free enthalpy is G = H - T*S

Total enthalpy                    ...   -253.06463875 Eh 
Total entropy correction          ...     -0.04011962 Eh    -25.18 kcal/mol
-----------------------------------------------------------------------
Final Gibbs free enthalpy         ...   -253.10475836 Eh

For completeness - the Gibbs free enthalpy minus the electronic energy
G-E(el)                           ...      0.16151698 Eh    101.35 kcal/mol


Timings for individual modules:

Sum of individual times         ...     1673.880 sec (=  27.898 min)
GTO integral calculation        ...       10.981 sec (=   0.183 min)   0.7 %
SCF iterations                  ...      151.326 sec (=   2.522 min)   9.0 %
SCF Gradient evaluation         ...      104.865 sec (=   1.748 min)   6.3 %
Geometry relaxation             ...        0.316 sec (=   0.005 min)   0.0 %
Analytical frequency calculation...     1406.393 sec (=  23.440 min)  84.0 %
                             ****ORCA TERMINATED NORMALLY****
TOTAL RUN TIME: 0 days 0 hours 27 minutes 55 seconds 599 msec
