
                                 *****************
                                 * O   R   C   A *
                                 *****************

           --- An Ab Initio, DFT and Semiempirical electronic structure package ---

                  #######################################################
                  #                        -***-                        #
                  #  Department of molecular theory and spectroscopy    #
                  #              Directorship: Frank Neese              #
                  # Max Planck Institute for Chemical Energy Conversion #
                  #                  D-45470 Muelheim/Ruhr              #
                  #                       Germany                       #
                  #                                                     #
                  #                  All rights reserved                #
                  #                        -***-                        #
                  #######################################################


                         Program Version 3.0.3 - RELEASE   -


 With contributions from (in alphabetic order):
   Ute Becker             : Parallelization
   Dmytro Bykov           : SCF Hessian
   Dmitry Ganyushin       : Spin-Orbit,Spin-Spin,Magnetic field MRCI
   Andreas Hansen         : Spin unrestricted coupled pair/coupled cluster methods
   Dimitrios Liakos       : Extrapolation schemes; parallel MDCI
   Robert Izsak           : Overlap fitted RIJCOSX, COSX-SCS-MP3
   Christian Kollmar      : KDIIS, OOCD, Brueckner-CCSD(T), CCSD density
   Simone Kossmann        : Meta GGA functionals, TD-DFT gradient, OOMP2, MP2 Hessian
   Taras Petrenko         : DFT Hessian,TD-DFT gradient, ASA and ECA modules, normal mode analysis, Resonance Raman, ABS, FL, XAS/XES, NRVS
   Christoph Reimann      : Effective Core Potentials
   Michael Roemelt        : Restricted open shell CIS
   Christoph Riplinger    : Improved optimizer, TS searches, QM/MM, DLPNO-CCSD
   Barbara Sandhoefer     : DKH picture change effects
   Igor Schapiro          : Molecular dynamics
   Kantharuban Sivalingam : CASSCF convergence, NEVPT2
   Boris Wezisla          : Elementary symmetry handling
   Frank Wennmohs         : Technical directorship


 We gratefully acknowledge several colleagues who have allowed us to
 interface, adapt or use parts of their codes:
   Stefan Grimme, W. Hujo, H. Kruse, T. Risthaus : VdW corrections, initial TS optimization,
                                                   DFT functionals, gCP
   Ed Valeev                                     : LibInt (2-el integral package), F12 methods
   Garnet Chan, S. Sharma, R. Olivares           : DMRG
   Ulf Ekstrom                                   : XCFun DFT Library
   Mihaly Kallay                                 : mrcc  (arbitrary order and MRCC methods)
   Andreas Klamt, Michael Diedenhofen            : otool_cosmo (COSMO solvation model)
   Frank Weinhold                                : gennbo (NPA and NBO analysis)
   Christopher J. Cramer and Donald G. Truhlar   : smd solvation model


 Your calculation uses the libint2 library for the computation of 2-el integrals
 For citations please refer to: http://libint.valeyev.net

 This ORCA versions uses:
   CBLAS   interface :  Fast vector & matrix operations
   LAPACKE interface :  Fast linear algebra routines
   SCALAPACK package :  Parallel linear algebra routines


Your calculation utilizes the basis: Ahlrichs-TZV
Cite in your paper:
H - Kr: A. Schaefer, H. Horn and R. Ahlrichs, J. Chem. Phys. 97, 2571 (1992).

The def2-TZV basis will be loaded
Cite in your paper:
 	F. Weigend, R. Ahlrichs, Phys. Chem. Chem. Phys. 2005, 7, 3297.

================================================================================
                                        WARNINGS
                       Please study these warnings very carefully!
================================================================================
Now building the actual basis set
WARNING: Geometry optimizations can change the point-group symmetry!

WARNING: Geometry Optimization
  ===> : Switching off AutoStart
         For restart on a previous wavefunction, please use MOREAD


INFO   : the flag for use of LIBINT has been found!

================================================================================
                                       INPUT FILE
================================================================================
NAME = 0471_+.inp
|  1> ! NORI PBE0 def2-TZVP UseSym TightOPT Freq TightSCF Grid3 FinalGrid5 XYZFile
|  2> % pal
|  3>     nprocs 8
|  4> end
|  5> %method
|  6>     SymThresh 5.0e-2
|  7> end
|  8> % geom 
|  9>     MaxIter 10
| 10> end 
| 11> % maxcore 2000
| 12> % output
| 13>     printlevel mini
| 14>     print[ P_Basis ] 0
| 15>     print[ P_SCFInfo ] 1
| 16>     print[ P_SCFIterInfo ] 1
| 17>     print[ P_OrbEn ] 0
| 18>     print[ P_Cartesian ] 0
| 19> end
| 20> % elprop
| 21>     Dipole false
| 22> end
| 23> *xyz 1 1
| 24>  C        1.6222180634     1.1629349868    -0.6651321874 
| 25>  C        2.4240871031     0.2646838496    -0.1127091948 
| 26>  C        2.9936017250    -0.8834648855    -0.8704989058 
| 27>  N        4.4821537618    -0.8116331494    -0.9093890093 
| 28>  C        5.2667995705    -1.4331133811    -1.9950444925 
| 29>  C        5.1812600435     0.0333528563    -1.8955631111 
| 30>  H        1.1966944568     1.9704426685    -0.0820165430 
| 31>  H        1.3394397905     1.1141674964    -1.7121189878 
| 32>  H        2.6621786120     0.3206139121     0.9470417359 
| 33>  H        2.7502756771    -1.8477708542    -0.4160058829 
| 34>  H        2.6510563420    -0.8922274334    -1.9066175262 
| 35>  H        4.9146133109    -0.8425942459     0.0090882220 
| 36>  H        6.1673641540    -1.9417790972    -1.6762251602 
| 37>  H        4.6612947934    -1.9499271803    -2.7285876569 
| 38>  H        4.5130211336     0.5736517279    -2.5537036396 
| 39>  H        6.0210914624     0.5931727296    -1.5053376603 
| 40> *
| 41> 
| 42>                          ****END OF INPUT****
================================================================================

The point group is C1 - hence turning off symmetry
If this is a round-off problem, please increase the symmetry
        detection tolerance (%method SymThresh)


                       *****************************
                       * Geometry Optimization Run *
                       *****************************

Geometry optimization settings:
Update method            Update   .... BFGS
Choice of coordinates    CoordSys .... Redundant Internals
Initial Hessian          InHess   .... Almoef's Model

Convergence Tolerances:
Energy Change            TolE     ....  1.0000e-06 Eh
Max. Gradient            TolMAXG  ....  1.0000e-04 Eh/bohr
RMS Gradient             TolRMSG  ....  3.0000e-05 Eh/bohr
Max. Displacement        TolMAXD  ....  1.0000e-03 bohr
RMS Displacement         TolRMSD  ....  6.0000e-04 bohr

------------------------------------------------------------------------------
                        ORCA OPTIMIZATION COORDINATE SETUP
------------------------------------------------------------------------------

The optimization will be done in new redundant internal coordinates
Making redundant internal coordinates   ...  (new redundants) done
Evaluating the initial hessian          ...  (Almloef) done
Evaluating the coordinates              ...  done
Calculating the B-matrix                .... done
Calculating the G-matrix                .... done
Diagonalizing the G-matrix              .... done
The first mode is                       ....   47
The number of degrees of freedom        ....   42

    -----------------------------------------------------------------
                    Redundant Internal Coordinates


    -----------------------------------------------------------------
         Definition                    Initial Value    Approx d2E/dq
    -----------------------------------------------------------------
      1. B(C   1,C   0)                  1.3248         0.793974   
      2. B(C   2,C   1)                  1.4889         0.434452   
      3. B(N   3,C   2)                  1.4908         0.386428   
      4. B(C   4,N   3)                  1.4767         0.407004   
      5. B(C   5,C   4)                  1.4723         0.461739   
      6. B(C   5,N   3)                  1.4749         0.409680   
      7. B(H   6,C   0)                  1.0831         0.369309   
      8. B(H   7,C   0)                  1.0856         0.365971   
      9. B(H   8,C   1)                  1.0876         0.363280   
     10. B(H   9,C   2)                  1.0935         0.355550   
     11. B(H  10,C   2)                  1.0913         0.358372   
     12. B(H  11,N   3)                  1.0157         0.423792   
     13. B(H  12,C   4)                  1.0823         0.370413   
     14. B(H  13,C   4)                  1.0825         0.370152   
     15. B(H  14,C   5)                  1.0824         0.370280   
     16. B(H  15,C   5)                  1.0821         0.370672   
     17. A(H   6,C   0,H   7)          116.7676         0.292741   
     18. A(C   1,C   0,H   6)          121.2522         0.369704   
     19. A(C   1,C   0,H   7)          121.9630         0.369127   
     20. A(C   2,C   1,H   8)          116.8620         0.332984   
     21. A(C   0,C   1,C   2)          122.8306         0.425710   
     22. A(C   0,C   1,H   8)          120.2618         0.368660   
     23. A(C   1,C   2,H  10)          111.6754         0.332234   
     24. A(C   1,C   2,H   9)          112.5437         0.331799   
     25. A(C   1,C   2,N   3)          110.9806         0.372716   
     26. A(H   9,C   2,H  10)          108.5237         0.290040   
     27. A(N   3,C   2,H  10)          106.8000         0.323920   
     28. A(N   3,C   2,H   9)          105.9936         0.323500   
     29. A(C   2,N   3,C   4)          121.9692         0.366256   
     30. A(C   5,N   3,H  11)          114.8534         0.333374   
     31. A(C   4,N   3,C   5)           59.8451         0.369947   
     32. A(C   4,N   3,H  11)          115.1998         0.333012   
     33. A(C   2,N   3,H  11)          113.5838         0.330164   
     34. A(C   2,N   3,C   5)          121.2212         0.366667   
     35. A(N   3,C   4,C   5)           60.0173         0.380052   
     36. A(H  12,C   4,H  13)          116.1458         0.293403   
     37. A(C   5,C   4,H  13)          119.2626         0.337422   
     38. A(N   3,C   4,H  13)          113.6978         0.328441   
     39. A(C   5,C   4,H  12)          119.7719         0.337462   
     40. A(N   3,C   4,H  12)          115.0469         0.328480   
     41. A(H  14,C   5,H  15)          116.1141         0.293452   
     42. A(C   4,C   5,H  15)          119.6402         0.337501   
     43. A(N   3,C   5,H  15)          115.0332         0.328873   
     44. A(N   3,C   5,C   4)           60.1376         0.380484   
     45. A(C   4,C   5,H  14)          119.4695         0.337442   
     46. A(N   3,C   5,H  14)          113.5720         0.328815   
     47. D(H   8,C   1,C   0,H   6)      0.5431         0.045480   
     48. D(C   2,C   1,C   0,H   6)    178.0075         0.045480   
     49. D(H   8,C   1,C   0,H   7)   -177.8962         0.045480   
     50. D(C   2,C   1,C   0,H   7)     -0.4318         0.045480   
     51. D(N   3,C   2,C   1,H   8)    -64.5890         0.013934   
     52. D(H  10,C   2,C   1,H   8)    176.3643         0.013934   
     53. D(N   3,C   2,C   1,C   0)    117.8659         0.013934   
     54. D(H   9,C   2,C   1,H   8)     54.0109         0.013934   
     55. D(H  10,C   2,C   1,C   0)     -1.1808         0.013934   
     56. D(H   9,C   2,C   1,C   0)   -123.5341         0.013934   
     57. D(C   5,N   3,C   2,C   1)    -82.3881         0.013663   
     58. D(C   4,N   3,C   2,H   9)     83.4369         0.013663   
     59. D(C   4,N   3,C   2,C   1)   -154.0796         0.013663   
     60. D(C   5,N   3,C   2,H   9)    155.1283         0.013663   
     61. D(C   4,N   3,C   2,H  10)    -32.1425         0.013663   
     62. D(H  11,N   3,C   2,H  10)   -177.2373         0.013663   
     63. D(H  11,N   3,C   2,H   9)    -61.6579         0.013663   
     64. D(H  11,N   3,C   2,C   1)     60.8256         0.013663   
     65. D(C   5,N   3,C   2,H  10)     39.5490         0.013663   
     66. D(H  13,C   4,N   3,C   5)   -111.2886         0.015134   
     67. D(H  13,C   4,N   3,C   2)     -1.1646         0.015134   
     68. D(H  12,C   4,N   3,H  11)      5.9969         0.015134   
     69. D(H  12,C   4,N   3,C   5)    111.2944         0.015134   
     70. D(H  12,C   4,N   3,C   2)   -138.5816         0.015134   
     71. D(C   5,C   4,N   3,C   2)    110.1240         0.015134   
     72. D(H  13,C   4,N   3,H  11)    143.4139         0.015134   
     73. D(C   5,C   4,N   3,H  11)   -105.2974         0.015134   
     74. D(H  14,C   5,N   3,C   4)    111.6182         0.015332   
     75. D(H  14,C   5,N   3,C   2)      0.2785         0.015332   
     76. D(C   4,C   5,N   3,H  11)    105.8770         0.015332   
     77. D(C   4,C   5,N   3,C   2)   -111.3396         0.015332   
     78. D(H  15,C   5,C   4,H  12)      0.0969         0.016843   
     79. D(H  15,C   5,C   4,N   3)    103.5734         0.016843   
     80. D(H  14,C   5,C   4,H  13)      0.1985         0.016843   
     81. D(H  14,C   5,C   4,H  12)    154.6812         0.016843   
     82. D(H  14,C   5,C   4,N   3)   -101.8423         0.016843   
     83. D(N   3,C   5,C   4,H  13)    102.0408         0.016843   
     84. D(N   3,C   5,C   4,H  12)   -103.4764         0.016843   
     85. D(H  15,C   5,N   3,H  11)     -5.3004         0.015332   
     86. D(H  15,C   5,N   3,C   4)   -111.1774         0.015332   
     87. D(H  15,C   5,N   3,C   2)    137.4829         0.015332   
     88. D(H  15,C   5,C   4,H  13)   -154.3858         0.016843   
     89. D(H  14,C   5,N   3,H  11)   -142.5048         0.015332   
    -----------------------------------------------------------------

Number of atoms                         .... 16
Number of degrees of freedom            .... 89

         *************************************************************
         *                GEOMETRY OPTIMIZATION CYCLE   1            *
         *************************************************************


           ************************************************************
           *        Program running with 8 parallel MPI-processes     *
           *              working on a common directory               *
           ************************************************************
           ************************************************************
           *              Shut down parallel processing               *
           ************************************************************


           ************************************************************
           *        Program running with 8 parallel MPI-processes     *
           *              working on a common directory               *
           ************************************************************
------------
SCF SETTINGS
------------
Hamiltonian:
 Density Functional     Method          .... DFT(GTOs)
 Exchange Functional    Exchange        .... PBE
   PBE kappa parameter  XKappa          ....  0.804000
 Correlation Functional Correlation     .... PBE
 LDA part of GGA corr.  LDAOpt          .... PW91-LDA
 Gradients option       PostSCFGGA      .... off
 Hybrid DFT is turned on
   Fraction HF Exchange ScalHFX         ....  0.250000
   Scaling of DF-GGA-X  ScalDFX         ....  0.750000
   Scaling of DF-GGA-C  ScalDFC         ....  1.000000
   Scaling of DF-LDA-C  ScalLDAC        ....  1.000000
   Perturbative correction              ....  0.000000
   NL short-range parameter             ....  6.900000


General Settings:
 Integral files         IntName         .... 0471_+
 Hartree-Fock type      HFTyp           .... RHF
 Total Charge           Charge          ....    1
 Multiplicity           Mult            ....    1
 Number of Electrons    NEL             ....   46
 Basis Dimension        Dim             ....  246
 Nuclear Repulsion      ENuc            ....    238.1836120091 Eh

Convergence Acceleration:
 DIIS                   CNVDIIS         .... on
   Start iteration      DIISMaxIt       ....    12
   Startup error        DIISStart       ....  0.200000
   # of expansion vecs  DIISMaxEq       ....     5
   Bias factor          DIISBfac        ....   1.050
   Max. coefficient     DIISMaxC        ....  10.000
 Newton-Raphson         CNVNR           .... off
 SOSCF                  CNVSOSCF        .... on
   Start iteration      SOSCFMaxIt      ....   150
   Startup grad/error   SOSCFStart      ....  0.003300
 Level Shifting         CNVShift        .... on
   Level shift para.    LevelShift      ....    0.2500
   Turn off err/grad.   ShiftErr        ....    0.0010
 Zerner damping         CNVZerner       .... off
 Static damping         CNVDamp         .... on
   Fraction old density DampFac         ....    0.7000
   Max. Damping (<1)    DampMax         ....    0.9800
   Min. Damping (>=0)   DampMin         ....    0.0000
   Turn off err/grad.   DampErr         ....    0.1000
 Fernandez-Rico         CNVRico         .... off

SCF Procedure:
 Maximum # iterations   MaxIter         ....   125
 SCF integral mode      SCFMode         .... Direct
   Integral package                     .... LIBINT
 Reset frequeny         DirectResetFreq ....    20
 Integral Threshold     Thresh          ....  2.500e-11 Eh
 Primitive CutOff       TCut            ....  2.500e-12 Eh

Convergence Tolerance:
 Convergence Check Mode ConvCheckMode   .... Total+1el-Energy
 Energy Change          TolE            ....  1.000e-08 Eh
 1-El. energy change                    ....  1.000e-05 Eh
 Orbital Gradient       TolG            ....  1.000e-05
 Orbital Rotation angle TolX            ....  1.000e-05
 DIIS Error             TolErr          ....  5.000e-07


Diagonalization of the overlap matrix:
Smallest eigenvalue                        ... 1.685e-04
Time for diagonalization                   ...    0.014 sec
Threshold for overlap eigenvalues          ... 1.000e-08
Number of eigenvalues below threshold      ... 0
Time for construction of square roots      ...    0.006 sec
Total time needed                          ...    0.020 sec

-------------------
DFT GRID GENERATION
-------------------

General Integration Accuracy     IntAcc      ...  4.340
Radial Grid Type                 RadialGrid  ... Gauss-Chebyshev
Angular Grid (max. acc.)         AngularGrid ... Lebedev-194
Angular grid pruning method      GridPruning ... 3 (G Style)
Weight generation scheme         WeightScheme... Becke
Basis function cutoff            BFCut       ...    1.0000e-11
Integration weight cutoff        WCut        ...    1.0000e-14
Grids for H and He will be reduced by one unit

# of grid points (after initial pruning)     ...  35004 (   0.0 sec)
# of grid points (after weights+screening)   ...  32318 (   0.0 sec)
nearest neighbour list constructed           ...    0.0 sec
Grid point re-assignment to atoms done       ...    0.0 sec
Grid point division into batches done        ...    0.0 sec
Reduced shell lists constructed in    0.1 sec

Total number of grid points                  ...    32318
Total number of batches                      ...      512
Average number of points per batch           ...       63
Average number of grid points per atom       ...     2020
Average number of shells per batch           ...    81.71 (77.08%)
Average number of basis functions per batch  ...   194.42 (79.03%)
Average number of large shells per batch     ...    66.32 (81.17%)
Average number of large basis fcns per batch ...   156.54 (80.52%)
Maximum spatial batch extension              ...   3.66,  7.82,  4.57 au
Average spatial batch extension              ...   0.17,  0.18,  0.17 au

Time for grid setup =    0.138 sec

Loading Hartree-Fock densities                     ... done
Calculating cut-offs                               ... done
Setting up the integral package                    ... done
Initializing the effective Hamiltonian             ... done
Starting the Coulomb interaction                   ... done (   0.0 sec)
Reading the grid                                   ... done
Mapping shells                                     ... done
Starting the XC term evaluation                    ... done (   0.1 sec)
  promolecular density results
     # of electrons  =     46.994152709
     EX              =    -35.090968660
     EC              =     -1.532550784
     EX+EC           =    -36.623519445
Transforming the Hamiltonian                       ... done (   0.0 sec)
Diagonalizing the Hamiltonian                      ... done (   0.0 sec)
Back transforming the eigenvectors                 ... done (   0.0 sec)
Now organizing SCF variables                       ... done
--------------
SCF ITERATIONS
--------------
ITER       Energy         Delta-E        Max-DP      RMS-DP      [F,P]     Damp
               ***  Starting incremental Fock matrix formation  ***
  0   -250.6740252829   0.000000000000 0.03121675  0.00067167  0.1592116 0.7000
                      *** Initiating the SOSCF procedure ***
                      *** Re-Reading the Fockian *** 
                      *** Removing any level shift *** 
ITER      Energy       Delta-E        Grad      Rot      Max-DP    RMS-DP
  1   -250.72104428  -0.0470190013  0.003273  0.003273  0.062937  0.001766
               *** Restarting incremental Fock matrix formation ***
  2   -250.75722799  -0.0361837091  0.020557  0.042168  0.066671  0.001562
  3   -250.75279051   0.0044374839  0.022555  0.035893  0.035888  0.000824
  4   -250.78211443  -0.0293239219  0.005493  0.017527  0.012346  0.000279
  5   -250.78133161   0.0007828187  0.008461  0.011213  0.007726  0.000156
  6   -250.78268087  -0.0013492580  0.000285  0.000653  0.001005  0.000023
  7   -250.78268054   0.0000003326  0.000373  0.000388  0.000353  0.000010
  8   -250.78268469  -0.0000041509  0.000035  0.000063  0.000180  0.000004
  9   -250.78268470  -0.0000000080  0.000039  0.000039  0.000090  0.000002
 10   -250.78268479  -0.0000000908  0.000008  0.000015  0.000017  0.000001
 11   -250.78268479  -0.0000000009  0.000007  0.000007  0.000011  0.000000
                  ***Gradient check signals convergence***
              ***Rediagonalizing the Fockian in SOSCF/NRSCF***

               *****************************************************
               *                     SUCCESS                       *
               *           SCF CONVERGED AFTER  12 CYCLES          *
               *****************************************************

Setting up the final grid:

General Integration Accuracy     IntAcc      ...  5.010
Radial Grid Type                 RadialGrid  ... Gauss-Chebyshev
Angular Grid (max. acc.)         AngularGrid ... Lebedev-434
Angular grid pruning method      GridPruning ... 3 (G Style)
Weight generation scheme         WeightScheme... Becke
Basis function cutoff            BFCut       ...    1.0000e-11
Integration weight cutoff        WCut        ...    1.0000e-14
Grids for H and He will be reduced by one unit

# of grid points (after initial pruning)     ... 131000 (   0.0 sec)
# of grid points (after weights+screening)   ... 119617 (   0.1 sec)
nearest neighbour list constructed           ...    0.0 sec
Grid point re-assignment to atoms done       ...    0.0 sec
Grid point division into batches done        ...    0.7 sec
Reduced shell lists constructed in    0.9 sec

Total number of grid points                  ...   119617
Total number of batches                      ...     1878
Average number of points per batch           ...       63
Average number of grid points per atom       ...     7476
Average number of shells per batch           ...    81.17 (76.57%)
Average number of basis functions per batch  ...   193.42 (78.63%)
Average number of large shells per batch     ...    65.92 (81.21%)
Average number of large basis fcns per batch ...   156.21 (80.76%)
Maximum spatial batch extension              ...   3.17,  3.76,  3.48 au
Average spatial batch extension              ...   0.12,  0.12,  0.11 au

Final grid set up in    1.0 sec
Final integration                            ... done (   0.5 sec)
Change in XC energy                          ...     0.000419648
Integrated number of electrons               ...    46.000036349
Previous integrated no of electrons          ...    45.999612342
Total Energy       :         -250.78226514 Eh           -6824.13237 eV
  Last Energy change         ...   -2.1070e-09  Tolerance :   1.0000e-08
  Last MAX-Density change    ...    9.9891e-07  Tolerance :   1.0000e-07
             **** THE GBW FILE WAS UPDATED (0471_+.gbw) ****
             **** DENSITY FILE WAS UPDATED (0471_+.scfp.tmp) ****
             **** ENERGY FILE WAS UPDATED (0471_+.en.tmp) ****
Total SCF time: 0 days 0 hours 0 min 46 sec 
           ************************************************************
           *              Shut down parallel processing               *
           ************************************************************

-------------------------   --------------------
FINAL SINGLE POINT ENERGY      -250.782265142509
-------------------------   --------------------



           ************************************************************
           *        Program running with 8 parallel MPI-processes     *
           *              working on a common directory               *
           ************************************************************
------------------------------------------------------------------------------
                         ORCA SCF GRADIENT CALCULATION
------------------------------------------------------------------------------

Gradient of the Kohn-Sham DFT energy:
Kohn-Sham wavefunction type      ... RKS
Hartree-Fock exchange scaling    ...    0.250
Number of operators              ...    1
Number of atoms                  ...   16
Basis set dimensions             ...  246
Integral neglect threshold       ... 2.5e-11
Integral primitive cutoff        ... 2.5e-12

Nuclear repulsion gradient       ... done
One Electron Gradient            ... done
Pre-screening matrix             ... done
Starting the two electron gradient:
Two electron gradient done
Exchange-correlation gradient    ... done

------------------
CARTESIAN GRADIENT
------------------

   1   C   :   -0.000098348    0.000011458   -0.000039866
   2   C   :   -0.000053157    0.000003005    0.000076295
   3   C   :    0.000116907    0.000016189    0.000034814
   4   N   :   -0.000205803    0.000189059   -0.000254340
   5   C   :    0.000350834   -0.000132076    0.000176875
   6   C   :    0.000012035   -0.000083616    0.000054145
   7   H   :   -0.000028207   -0.000042556   -0.000001051
   8   H   :    0.000088593    0.000063347   -0.000014935
   9   H   :    0.000045129   -0.000070731    0.000089646
  10   H   :   -0.000072922   -0.000000759   -0.000014877
  11   H   :   -0.000059113    0.000030345   -0.000050701
  12   H   :    0.000093443   -0.000032367    0.000090778
  13   H   :   -0.000059236    0.000030460   -0.000049249
  14   H   :   -0.000071909   -0.000007856   -0.000063025
  15   H   :   -0.000027765   -0.000042504   -0.000042065
  16   H   :   -0.000030481    0.000068601    0.000007557

Norm of the cartesian gradient     ...    0.000668041
RMS gradient                       ...    0.000096423
MAX gradient                       ...    0.000350834

-------
TIMINGS
-------

Total SCF gradient time            ...       17.345 sec

One electron gradient       ....       0.063 sec  (  0.4%)
Prescreening matrices       ....       0.194 sec  (  1.1%)
Two electron gradient       ....      14.702 sec  ( 84.8%)
XC gradient                 ....       2.208 sec  ( 12.7%)
           ************************************************************
           *              Shut down parallel processing               *
           ************************************************************
------------------------------------------------------------------------------
                         ORCA GEOMETRY RELAXATION STEP
------------------------------------------------------------------------------

Reading the OPT-File                    .... done
Getting information on internals        .... done
Copying old internal coords+grads       .... done
Making the new internal coordinates     .... (new redundants).... done
Validating the new internal coordinates .... (new redundants).... done
Calculating the B-matrix                .... done
Calculating the G,G- and P matrices     .... done
Transforming gradient to internals      .... done
Projecting the internal gradient        .... done
Number of atoms                         ....  16
Number of internal coordinates          ....  89
Current Energy                          ....  -250.782265143 Eh
Current gradient norm                   ....     0.000668041 Eh/bohr
Maximum allowed component of the step   ....  0.300
Current trust radius                    ....  0.300
Evaluating the initial hessian          ....  (Almloef) done
Projecting the Hessian                  .... done
Forming the augmented Hessian           .... done
Diagonalizing the augmented Hessian     .... done
Last element of RFO vector              ....  0.999914783
Lowest eigenvalues of augmented Hessian:
 -0.000003660  0.013663402  0.013935823  0.027106739  0.035061816
Length of the computed step             ....  0.013055887
The final length of the internal step   ....  0.013055887
Converting the step to cartesian space:
 Initial RMS(Int)=    0.0013839212
Transforming coordinates:
 Iter   0:  RMS(Cart)=    0.0035304147 RMS(Int)=    0.0013839426
 Iter   1:  RMS(Cart)=    0.0000088654 RMS(Int)=    0.0000054017
 Iter   2:  RMS(Cart)=    0.0000000435 RMS(Int)=    0.0000000188
done
Storing new coordinates                 .... done

                                .--------------------.
          ----------------------|Geometry convergence|---------------------
          Item                value                 Tolerance   Converged
          -----------------------------------------------------------------
          RMS gradient        0.00006205            0.00003000      NO
          MAX gradient        0.00029719            0.00010000      NO
          RMS step            0.00138392            0.00060000      NO
          MAX step            0.00575935            0.00100000      NO
          ....................................................
          Max(Bonds)      0.0002      Max(Angles)    0.05
          Max(Dihed)        0.33      Max(Improp)    0.00
          -----------------------------------------------------------------

The optimization has not yet converged - more geometry cycles are needed


    ---------------------------------------------------------------------------
                         Redundant Internal Coordinates
                            (Angstroem and degrees)

        Definition                    Value    dE/dq     Step     New-Value
    ----------------------------------------------------------------------------
     1. B(C   1,C   0)                1.3248  0.000051 -0.0000    1.3247   
     2. B(C   2,C   1)                1.4889 -0.000088  0.0001    1.4890   
     3. B(N   3,C   2)                1.4908 -0.000066  0.0001    1.4909   
     4. B(C   4,N   3)                1.4767 -0.000067  0.0001    1.4768   
     5. B(C   5,C   4)                1.4723 -0.000066  0.0000    1.4724   
     6. B(C   5,N   3)                1.4749  0.000061 -0.0001    1.4748   
     7. B(H   6,C   0)                1.0831 -0.000005  0.0000    1.0831   
     8. B(H   7,C   0)                1.0856 -0.000072  0.0001    1.0857   
     9. B(H   8,C   1)                1.0876  0.000077 -0.0001    1.0875   
    10. B(H   9,C   2)                1.0935 -0.000025  0.0000    1.0935   
    11. B(H  10,C   2)                1.0913  0.000076 -0.0001    1.0912   
    12. B(H  11,N   3)                1.0157  0.000130 -0.0002    1.0155   
    13. B(H  12,C   4)                1.0823 -0.000058  0.0001    1.0824   
    14. B(H  13,C   4)                1.0825  0.000067 -0.0001    1.0824   
    15. B(H  14,C   5)                1.0824  0.000057 -0.0001    1.0823   
    16. B(H  15,C   5)                1.0821 -0.000066  0.0001    1.0822   
    17. A(H   6,C   0,H   7)          116.77 -0.000029    0.01    116.77   
    18. A(C   1,C   0,H   6)          121.25  0.000021   -0.00    121.25   
    19. A(C   1,C   0,H   7)          121.96  0.000007   -0.00    121.96   
    20. A(C   2,C   1,H   8)          116.86 -0.000017    0.00    116.86   
    21. A(C   0,C   1,C   2)          122.83 -0.000041    0.01    122.84   
    22. A(C   0,C   1,H   8)          120.26  0.000059   -0.01    120.25   
    23. A(C   1,C   2,H  10)          111.68  0.000036   -0.01    111.67   
    24. A(C   1,C   2,H   9)          112.54  0.000132   -0.02    112.52   
    25. A(C   1,C   2,N   3)          110.98 -0.000297    0.05    111.03   
    26. A(H   9,C   2,H  10)          108.52 -0.000063    0.00    108.53   
    27. A(N   3,C   2,H  10)          106.80  0.000180   -0.04    106.76   
    28. A(N   3,C   2,H   9)          105.99  0.000017    0.01    106.00   
    29. A(C   2,N   3,C   4)          121.97  0.000092   -0.03    121.94   
    30. A(C   5,N   3,H  11)          114.85 -0.000027    0.02    114.87   
    31. A(C   4,N   3,C   5)           59.85 -0.000026    0.00     59.85   
    32. A(C   4,N   3,H  11)          115.20 -0.000037    0.01    115.21   
    33. A(C   2,N   3,H  11)          113.58 -0.000058    0.02    113.60   
    34. A(C   2,N   3,C   5)          121.22  0.000080   -0.03    121.19   
    35. A(N   3,C   4,C   5)           60.02  0.000053   -0.01     60.01   
    36. A(H  12,C   4,H  13)          116.15  0.000008    0.00    116.15   
    37. A(C   5,C   4,H  13)          119.26 -0.000023    0.02    119.28   
    38. A(N   3,C   4,H  13)          113.70 -0.000021   -0.00    113.69   
    39. A(C   5,C   4,H  12)          119.77 -0.000003   -0.01    119.76   
    40. A(N   3,C   4,H  12)          115.05  0.000009   -0.01    115.03   
    41. A(H  14,C   5,H  15)          116.11 -0.000007   -0.00    116.11   
    42. A(C   4,C   5,H  15)          119.64 -0.000037    0.01    119.65   
    43. A(N   3,C   5,H  15)          115.03  0.000001   -0.00    115.03   
    44. A(N   3,C   5,C   4)           60.14 -0.000027    0.01     60.14   
    45. A(C   4,C   5,H  14)          119.47  0.000043   -0.01    119.46   
    46. A(N   3,C   5,H  14)          113.57  0.000024   -0.01    113.56   
    47. D(H   8,C   1,C   0,H   6)      0.54  0.000025   -0.02      0.52   
    48. D(C   2,C   1,C   0,H   6)    178.01  0.000053   -0.08    177.93   
    49. D(H   8,C   1,C   0,H   7)   -177.90  0.000059   -0.06   -177.96   
    50. D(C   2,C   1,C   0,H   7)     -0.43  0.000087   -0.12     -0.55   
    51. D(N   3,C   2,C   1,H   8)    -64.59  0.000131   -0.33    -64.92   
    52. D(H  10,C   2,C   1,H   8)    176.36  0.000080   -0.31    176.05   
    53. D(N   3,C   2,C   1,C   0)    117.87  0.000103   -0.27    117.60   
    54. D(H   9,C   2,C   1,H   8)     54.01  0.000039   -0.30     53.71   
    55. D(H  10,C   2,C   1,C   0)     -1.18  0.000051   -0.25     -1.43   
    56. D(H   9,C   2,C   1,C   0)   -123.53  0.000010   -0.24   -123.77   
    57. D(C   5,N   3,C   2,C   1)    -82.39  0.000040   -0.06    -82.45   
    58. D(C   4,N   3,C   2,H   9)     83.44 -0.000003   -0.05     83.39   
    59. D(C   4,N   3,C   2,C   1)   -154.08 -0.000004   -0.04   -154.12   
    60. D(C   5,N   3,C   2,H   9)    155.13  0.000041   -0.07    155.05   
    61. D(C   4,N   3,C   2,H  10)    -32.14 -0.000022   -0.04    -32.18   
    62. D(H  11,N   3,C   2,H  10)   -177.24  0.000001   -0.05   -177.29   
    63. D(H  11,N   3,C   2,H   9)    -61.66  0.000020   -0.06    -61.72   
    64. D(H  11,N   3,C   2,C   1)     60.83  0.000019   -0.05     60.78   
    65. D(C   5,N   3,C   2,H  10)     39.55  0.000022   -0.07     39.48   
    66. D(H  13,C   4,N   3,C   5)   -111.29  0.000005   -0.02   -111.31   
    67. D(H  13,C   4,N   3,C   2)     -1.16  0.000057   -0.05     -1.22   
    68. D(H  12,C   4,N   3,H  11)      6.00  0.000030   -0.02      5.98   
    69. D(H  12,C   4,N   3,C   5)    111.29  0.000007   -0.01    111.29   
    70. D(H  12,C   4,N   3,C   2)   -138.58  0.000059   -0.03   -138.62   
    71. D(C   5,C   4,N   3,C   2)    110.12  0.000052   -0.03    110.10   
    72. D(H  13,C   4,N   3,H  11)    143.41  0.000028   -0.04    143.37   
    73. D(C   5,C   4,N   3,H  11)   -105.30  0.000023   -0.02   -105.31   
    74. D(H  14,C   5,N   3,C   4)    111.62  0.000034   -0.00    111.62   
    75. D(H  14,C   5,N   3,C   2)      0.28 -0.000038    0.02      0.30   
    76. D(C   4,C   5,N   3,H  11)    105.88 -0.000040    0.01    105.88   
    77. D(C   4,C   5,N   3,C   2)   -111.34 -0.000072    0.02   -111.32   
    78. D(H  15,C   5,C   4,H  12)      0.10 -0.000030    0.01      0.11   
    79. D(H  15,C   5,C   4,N   3)    103.57  0.000007   -0.00    103.57   
    80. D(H  14,C   5,C   4,H  13)      0.20  0.000011   -0.01      0.19   
    81. D(H  14,C   5,C   4,H  12)    154.68 -0.000033    0.02    154.70   
    82. D(H  14,C   5,C   4,N   3)   -101.84  0.000003    0.00   -101.84   
    83. D(N   3,C   5,C   4,H  13)    102.04  0.000008   -0.02    102.02   
    84. D(N   3,C   5,C   4,H  12)   -103.48 -0.000036    0.02   -103.46   
    85. D(H  15,C   5,N   3,H  11)     -5.30  0.000012   -0.01     -5.31   
    86. D(H  15,C   5,N   3,C   4)   -111.18  0.000052   -0.02   -111.19   
    87. D(H  15,C   5,N   3,C   2)    137.48 -0.000020    0.01    137.49   
    88. D(H  15,C   5,C   4,H  13)   -154.39  0.000015   -0.02   -154.41   
    89. D(H  14,C   5,N   3,H  11)   -142.50 -0.000006    0.00   -142.50   
    ----------------------------------------------------------------------------

         *************************************************************
         *                GEOMETRY OPTIMIZATION CYCLE   2            *
         *************************************************************
---------------------------------
CARTESIAN COORDINATES (ANGSTROEM)
---------------------------------
  C      0.862642   -0.001761   -2.406805
  C      1.164497    0.351576   -1.166254
  C      0.157231    0.895042   -0.213775
  N      0.000258   -0.000611    0.967704
  C     -1.248268   -0.043416    1.755282
  C     -0.869231   -1.190633    0.913812
  H      1.622536   -0.363270   -3.088751
  H     -0.147117    0.078250   -2.797619
  H      2.191530    0.291067   -0.813855
  H      0.442293    1.872609    0.184771
  H     -0.827632    0.982580   -0.675396
  H      0.854334   -0.119598    1.504030
  H     -1.111719   -0.095326    2.827776
  H     -2.007986    0.642821    1.403828
  H     -1.352302   -1.330496   -0.044582
  H     -0.457896   -2.079513    1.374128

----------------------------
CARTESIAN COORDINATES (A.U.)
----------------------------
  NO LB      ZA    FRAG    MASS        X           Y           Z
   0 C     6.0000    0    12.011          1.630156239582362         -0.003328227744732         -4.548201990267738
   1 C     6.0000    0    12.011          2.200580103693288          0.664382703533247         -2.203900332495640
   2 C     6.0000    0    12.011          0.297123313445314          1.691383735064355         -0.403975766241520
   3 N     7.0000    0    14.007          0.000487563913373         -0.001154634750926          1.828696043966019
   4 C     6.0000    0    12.011         -2.358885376622597         -0.082045129191283          3.317002577038105
   5 C     6.0000    0    12.011         -1.642608520479529         -2.249969994867646          1.726854389636277
   6 H     1.0000    0     1.008          3.066147818705351         -0.686480440758559         -5.836893206319017
   7 H     1.0000    0     1.008         -0.278011628519774          0.147871587357735         -5.286733865977687
   8 H     1.0000    0     1.008          4.141391824170902          0.550037258481384         -1.537963419275611
   9 H     1.0000    0     1.008          0.835812957948573          3.538718575435189          0.349166614493390
  10 H     1.0000    0     1.008         -1.563997647019890          1.856806472107425         -1.276313881204939
  11 H     1.0000    0     1.008          1.614458094636485         -0.226007624903481          2.842205307378028
  12 H     1.0000    0     1.008         -2.100843952862699         -0.180140349113734          5.343721709820975
  13 H     1.0000    0     1.008         -3.794542737080005          1.214755445549783          2.652850382025740
  14 H     1.0000    0     1.008         -2.555480038221714         -2.514272187540401         -0.084248199464015
  15 H     1.0000    0     1.008         -0.865298594962466         -3.929710349543674          2.596726233145865

--------------------------------
INTERNAL COORDINATES (ANGSTROEM)
--------------------------------
 C      0   0   0   0.000000     0.000     0.000
 C      1   0   0   1.324738     0.000     0.000
 C      2   1   0   1.489012   122.836     0.000
 N      3   2   1   1.490881   111.031   117.595
 C      4   3   2   1.476797   121.941   205.885
 C      5   4   3   1.472361    60.010   110.095
 H      1   2   3   1.083133   121.249   177.928
 H      1   2   3   1.085703   121.962   359.446
 H      2   1   3   1.087494   120.252   182.597
 H      3   2   1   1.093498   112.525   236.229
 H      3   2   1   1.091197   111.667   358.567
 H      4   3   2   1.015505   113.601    60.779
 H      5   4   3   1.082397   115.034   221.384
 H      5   4   3   1.082410   113.694   358.784
 H      6   5   4   1.082330   119.463   258.162
 H      6   5   4   1.082218   119.652   103.569

---------------------------
INTERNAL COORDINATES (A.U.)
---------------------------
 C      0   0   0   0.000000     0.000     0.000
 C      1   0   0   2.503392     0.000     0.000
 C      2   1   0   2.813824   122.836     0.000
 N      3   2   1   2.817357   111.031   117.595
 C      4   3   2   2.790742   121.941   205.885
 C      5   4   3   2.782359    60.010   110.095
 H      1   2   3   2.046825   121.249   177.928
 H      1   2   3   2.051681   121.962   359.446
 H      2   1   3   2.055066   120.252   182.597
 H      3   2   1   2.066411   112.525   236.229
 H      3   2   1   2.062064   111.667   358.567
 H      4   3   2   1.919026   113.601    60.779
 H      5   4   3   2.045434   115.034   221.384
 H      5   4   3   2.045459   113.694   358.784
 H      6   5   4   2.045307   119.463   258.162
 H      6   5   4   2.045095   119.652   103.569



           ************************************************************
           *        Program running with 8 parallel MPI-processes     *
           *              working on a common directory               *
           ************************************************************
           ************************************************************
           *              Shut down parallel processing               *
           ************************************************************


           ************************************************************
           *        Program running with 8 parallel MPI-processes     *
           *              working on a common directory               *
           ************************************************************

Diagonalization of the overlap matrix:
Smallest eigenvalue                        ... 1.685e-04
Time for diagonalization                   ...    0.014 sec
Threshold for overlap eigenvalues          ... 1.000e-08
Number of eigenvalues below threshold      ... 0
Time for construction of square roots      ...    0.006 sec
Total time needed                          ...    0.021 sec

-------------------
DFT GRID GENERATION
-------------------

General Integration Accuracy     IntAcc      ...  4.340
Radial Grid Type                 RadialGrid  ... Gauss-Chebyshev
Angular Grid (max. acc.)         AngularGrid ... Lebedev-194
Angular grid pruning method      GridPruning ... 3 (G Style)
Weight generation scheme         WeightScheme... Becke
Basis function cutoff            BFCut       ...    1.0000e-11
Integration weight cutoff        WCut        ...    1.0000e-14
Grids for H and He will be reduced by one unit

# of grid points (after initial pruning)     ...  35004 (   0.0 sec)
# of grid points (after weights+screening)   ...  32312 (   0.0 sec)
nearest neighbour list constructed           ...    0.0 sec
Grid point re-assignment to atoms done       ...    0.0 sec
Grid point division into batches done        ...    0.0 sec
Reduced shell lists constructed in    0.1 sec

Total number of grid points                  ...    32312
Total number of batches                      ...      512
Average number of points per batch           ...       63
Average number of grid points per atom       ...     2020
Average number of shells per batch           ...    81.65 (77.02%)
Average number of basis functions per batch  ...   194.35 (79.01%)
Average number of large shells per batch     ...    66.28 (81.18%)
Average number of large basis fcns per batch ...   156.18 (80.36%)
Maximum spatial batch extension              ...   3.66,  7.81,  4.57 au
Average spatial batch extension              ...   0.17,  0.19,  0.17 au

Time for grid setup =    0.139 sec

--------------
SCF ITERATIONS
--------------
ITER       Energy         Delta-E        Max-DP      RMS-DP      [F,P]     Damp
               ***  Starting incremental Fock matrix formation  ***
                      *** Initiating the SOSCF procedure ***
                      *** Re-Reading the Fockian *** 
                      *** Removing any level shift *** 
ITER      Energy       Delta-E        Grad      Rot      Max-DP    RMS-DP
  0   -250.78267510 -250.7826751038  0.000450  0.000450  0.000611  0.000014
               *** Restarting incremental Fock matrix formation ***
  1   -250.78268676  -0.0000116563  0.000245  0.000684  0.000361  0.000008
  2   -250.78268876  -0.0000020015  0.000049  0.000178  0.000087  0.000002
  3   -250.78268882  -0.0000000622  0.000019  0.000030  0.000045  0.000001
  4   -250.78268883  -0.0000000077  0.000012  0.000034  0.000017  0.000000
                  ***Gradient check signals convergence***
              ***Rediagonalizing the Fockian in SOSCF/NRSCF***

               *****************************************************
               *                     SUCCESS                       *
               *           SCF CONVERGED AFTER   5 CYCLES          *
               *****************************************************

Setting up the final grid:

General Integration Accuracy     IntAcc      ...  5.010
Radial Grid Type                 RadialGrid  ... Gauss-Chebyshev
Angular Grid (max. acc.)         AngularGrid ... Lebedev-434
Angular grid pruning method      GridPruning ... 3 (G Style)
Weight generation scheme         WeightScheme... Becke
Basis function cutoff            BFCut       ...    1.0000e-11
Integration weight cutoff        WCut        ...    1.0000e-14
Grids for H and He will be reduced by one unit

# of grid points (after initial pruning)     ... 131000 (   0.0 sec)
# of grid points (after weights+screening)   ... 119625 (   0.1 sec)
nearest neighbour list constructed           ...    0.0 sec
Grid point re-assignment to atoms done       ...    0.0 sec
Grid point division into batches done        ...    0.7 sec
Reduced shell lists constructed in    0.9 sec

Total number of grid points                  ...   119625
Total number of batches                      ...     1879
Average number of points per batch           ...       63
Average number of grid points per atom       ...     7477
Average number of shells per batch           ...    81.09 (76.50%)
Average number of basis functions per batch  ...   193.20 (78.54%)
Average number of large shells per batch     ...    65.78 (81.12%)
Average number of large basis fcns per batch ...   155.96 (80.72%)
Maximum spatial batch extension              ...   3.17,  5.58,  3.61 au
Average spatial batch extension              ...   0.12,  0.12,  0.11 au

Final grid set up in    1.0 sec
Final integration                            ... done (   0.5 sec)
Change in XC energy                          ...     0.000420759
Integrated number of electrons               ...    46.000036873
Previous integrated no of electrons          ...    45.999619325
Total Energy       :         -250.78226808 Eh           -6824.13245 eV
  Last Energy change         ...   -8.3388e-09  Tolerance :   1.0000e-08
  Last MAX-Density change    ...    3.3621e-06  Tolerance :   1.0000e-07
             **** THE GBW FILE WAS UPDATED (0471_+.gbw) ****
             **** DENSITY FILE WAS UPDATED (0471_+.scfp.tmp) ****
             **** ENERGY FILE WAS UPDATED (0471_+.en.tmp) ****
Total SCF time: 0 days 0 hours 0 min 18 sec 
           ************************************************************
           *              Shut down parallel processing               *
           ************************************************************

-------------------------   --------------------
FINAL SINGLE POINT ENERGY      -250.782268080710
-------------------------   --------------------



           ************************************************************
           *        Program running with 8 parallel MPI-processes     *
           *              working on a common directory               *
           ************************************************************
------------------------------------------------------------------------------
                         ORCA SCF GRADIENT CALCULATION
------------------------------------------------------------------------------

Gradient of the Kohn-Sham DFT energy:
Kohn-Sham wavefunction type      ... RKS
Hartree-Fock exchange scaling    ...    0.250
Number of operators              ...    1
Number of atoms                  ...   16
Basis set dimensions             ...  246
Integral neglect threshold       ... 2.5e-11
Integral primitive cutoff        ... 2.5e-12

Nuclear repulsion gradient       ... done
One Electron Gradient            ... done
Pre-screening matrix             ... done
Starting the two electron gradient:
Two electron gradient done
Exchange-correlation gradient    ... done

------------------
CARTESIAN GRADIENT
------------------

   1   C   :    0.000012622    0.000057554    0.000002096
   2   C   :   -0.000027840   -0.000057825   -0.000022559
   3   C   :    0.000085134    0.000022855    0.000028811
   4   N   :   -0.000108350    0.000133442   -0.000132849
   5   C   :    0.000193111   -0.000070470    0.000101960
   6   C   :   -0.000029325   -0.000037712   -0.000026271
   7   H   :   -0.000009787   -0.000006595   -0.000007723
   8   H   :    0.000007148    0.000004207   -0.000005755
   9   H   :   -0.000011481   -0.000070416    0.000053370
  10   H   :   -0.000056486    0.000034181   -0.000004651
  11   H   :    0.000002405    0.000001467    0.000002100
  12   H   :   -0.000017233   -0.000006810    0.000016020
  13   H   :   -0.000041436    0.000029139    0.000005283
  14   H   :   -0.000012940   -0.000027557   -0.000030864
  15   H   :   -0.000001273   -0.000020049    0.000003685
  16   H   :    0.000015732    0.000014589    0.000017346

Norm of the cartesian gradient     ...    0.000372034
RMS gradient                       ...    0.000053698
MAX gradient                       ...    0.000193111

-------
TIMINGS
-------

Total SCF gradient time            ...       17.435 sec

One electron gradient       ....       0.064 sec  (  0.4%)
Prescreening matrices       ....       0.154 sec  (  0.9%)
Two electron gradient       ....      14.780 sec  ( 84.8%)
XC gradient                 ....       2.215 sec  ( 12.7%)
           ************************************************************
           *              Shut down parallel processing               *
           ************************************************************
------------------------------------------------------------------------------
                         ORCA GEOMETRY RELAXATION STEP
------------------------------------------------------------------------------

Reading the OPT-File                    .... done
Getting information on internals        .... done
Copying old internal coords+grads       .... done
Making the new internal coordinates     .... (new redundants).... done
Validating the new internal coordinates .... (new redundants).... done
Calculating the B-matrix                .... done
Calculating the G,G- and P matrices     .... done
Transforming gradient to internals      .... done
Projecting the internal gradient        .... done
Number of atoms                         ....  16
Number of internal coordinates          ....  89
Current Energy                          ....  -250.782268081 Eh
Current gradient norm                   ....     0.000372034 Eh/bohr
Maximum allowed component of the step   ....  0.300
Current trust radius                    ....  0.300
Updating the Hessian (BFGS)             .... done
Forming the augmented Hessian           .... done
Diagonalizing the augmented Hessian     .... done
Last element of RFO vector              ....  0.999570545
Lowest eigenvalues of augmented Hessian:
 -0.000004958  0.005337304  0.013693433  0.027268851  0.035016574
Length of the computed step             ....  0.029316603
The final length of the internal step   ....  0.029316603
Converting the step to cartesian space:
 Initial RMS(Int)=    0.0031075538
Transforming coordinates:
 Iter   0:  RMS(Cart)=    0.0076724197 RMS(Int)=    0.0031073802
 Iter   1:  RMS(Cart)=    0.0000409694 RMS(Int)=    0.0000231602
 Iter   2:  RMS(Cart)=    0.0000004224 RMS(Int)=    0.0000001789
 Iter   3:  RMS(Cart)=    0.0000000042 RMS(Int)=    0.0000000025
done
Storing new coordinates                 .... done

                                .--------------------.
          ----------------------|Geometry convergence|---------------------
          Item                value                 Tolerance   Converged
          -----------------------------------------------------------------
          Energy change      -0.00000294            0.00000100      NO
          RMS gradient        0.00003299            0.00003000      NO
          MAX gradient        0.00015130            0.00010000      NO
          RMS step            0.00310755            0.00060000      NO
          MAX step            0.01230380            0.00100000      NO
          ....................................................
          Max(Bonds)      0.0002      Max(Angles)    0.08
          Max(Dihed)        0.70      Max(Improp)    0.00
          -----------------------------------------------------------------

The optimization has not yet converged - more geometry cycles are needed


    ---------------------------------------------------------------------------
                         Redundant Internal Coordinates
                            (Angstroem and degrees)

        Definition                    Value    dE/dq     Step     New-Value
    ----------------------------------------------------------------------------
     1. B(C   1,C   0)                1.3247 -0.000008  0.0000    1.3247   
     2. B(C   2,C   1)                1.4890 -0.000005  0.0001    1.4891   
     3. B(N   3,C   2)                1.4909 -0.000047  0.0002    1.4911   
     4. B(C   4,N   3)                1.4768 -0.000031  0.0002    1.4770   
     5. B(C   5,C   4)                1.4724 -0.000030  0.0000    1.4724   
     6. B(C   5,N   3)                1.4748  0.000033 -0.0001    1.4747   
     7. B(H   6,C   0)                1.0831  0.000000  0.0000    1.0831   
     8. B(H   7,C   0)                1.0857 -0.000005  0.0001    1.0858   
     9. B(H   8,C   1)                1.0875  0.000011 -0.0001    1.0874   
    10. B(H   9,C   2)                1.0935  0.000015 -0.0000    1.0935   
    11. B(H  10,C   2)                1.0912 -0.000005 -0.0000    1.0912   
    12. B(H  11,N   3)                1.0155 -0.000005 -0.0000    1.0155   
    13. B(H  12,C   4)                1.0824 -0.000002  0.0000    1.0824   
    14. B(H  13,C   4)                1.0824  0.000002 -0.0000    1.0824   
    15. B(H  14,C   5)                1.0823  0.000002 -0.0000    1.0823   
    16. B(H  15,C   5)                1.0822 -0.000000  0.0000    1.0823   
    17. A(H   6,C   0,H   7)          116.77 -0.000012    0.01    116.78   
    18. A(C   1,C   0,H   6)          121.25  0.000014   -0.01    121.24   
    19. A(C   1,C   0,H   7)          121.96 -0.000002   -0.00    121.96   
    20. A(C   2,C   1,H   8)          116.86 -0.000024    0.01    116.88   
    21. A(C   0,C   1,C   2)          122.84  0.000001    0.00    122.84   
    22. A(C   0,C   1,H   8)          120.25  0.000023   -0.01    120.24   
    23. A(C   1,C   2,H  10)          111.67  0.000014   -0.01    111.66   
    24. A(C   1,C   2,H   9)          112.52  0.000085   -0.05    112.48   
    25. A(C   1,C   2,N   3)          111.03 -0.000151    0.08    111.12   
    26. A(H   9,C   2,H  10)          108.53 -0.000038    0.01    108.54   
    27. A(N   3,C   2,H  10)          106.76  0.000089   -0.06    106.71   
    28. A(N   3,C   2,H   9)          106.00  0.000002    0.01    106.02   
    29. A(C   2,N   3,C   4)          121.94  0.000068   -0.07    121.87   
    30. A(C   5,N   3,H  11)          114.87 -0.000018    0.04    114.91   
    31. A(C   4,N   3,C   5)           59.85 -0.000013   -0.00     59.84   
    32. A(C   4,N   3,H  11)          115.21 -0.000028    0.03    115.24   
    33. A(C   2,N   3,H  11)          113.60 -0.000042    0.04    113.64   
    34. A(C   2,N   3,C   5)          121.19  0.000053   -0.06    121.12   
    35. A(N   3,C   4,C   5)           60.01  0.000026   -0.01     60.00   
    36. A(H  12,C   4,H  13)          116.15 -0.000000    0.01    116.15   
    37. A(C   5,C   4,H  13)          119.28 -0.000016    0.04    119.32   
    38. A(N   3,C   4,H  13)          113.69 -0.000015   -0.00    113.69   
    39. A(C   5,C   4,H  12)          119.76  0.000006   -0.02    119.74   
    40. A(N   3,C   4,H  12)          115.03  0.000012   -0.03    115.01   
    41. A(H  14,C   5,H  15)          116.11 -0.000001   -0.00    116.11   
    42. A(C   4,C   5,H  15)          119.65 -0.000026    0.02    119.67   
    43. A(N   3,C   5,H  15)          115.03 -0.000006    0.01    115.04   
    44. A(N   3,C   5,C   4)           60.14 -0.000013    0.01     60.16   
    45. A(C   4,C   5,H  14)          119.46  0.000030   -0.01    119.45   
    46. A(N   3,C   5,H  14)          113.56  0.000013   -0.02    113.55   
    47. D(H   8,C   1,C   0,H   6)      0.52  0.000001    0.00      0.53   
    48. D(C   2,C   1,C   0,H   6)    177.93  0.000008   -0.07    177.86   
    49. D(H   8,C   1,C   0,H   7)   -177.96  0.000005   -0.03   -177.99   
    50. D(C   2,C   1,C   0,H   7)     -0.55  0.000012   -0.10     -0.65   
    51. D(N   3,C   2,C   1,H   8)    -64.92  0.000077   -0.70    -65.62   
    52. D(H  10,C   2,C   1,H   8)    176.05  0.000056   -0.69    175.37   
    53. D(N   3,C   2,C   1,C   0)    117.60  0.000068   -0.64    116.96   
    54. D(H   9,C   2,C   1,H   8)     53.71  0.000033   -0.66     53.05   
    55. D(H  10,C   2,C   1,C   0)     -1.43  0.000047   -0.62     -2.05   
    56. D(H   9,C   2,C   1,C   0)   -123.77  0.000025   -0.59   -124.37   
    57. D(C   5,N   3,C   2,C   1)    -82.45  0.000041   -0.18    -82.63   
    58. D(C   4,N   3,C   2,H   9)     83.39 -0.000013   -0.11     83.27   
    59. D(C   4,N   3,C   2,C   1)   -154.12  0.000004   -0.11   -154.23   
    60. D(C   5,N   3,C   2,H   9)    155.05  0.000024   -0.18    154.88   
    61. D(C   4,N   3,C   2,H  10)    -32.18 -0.000012   -0.11    -32.29   
    62. D(H  11,N   3,C   2,H  10)   -177.29  0.000004   -0.13   -177.41   
    63. D(H  11,N   3,C   2,H   9)    -61.72  0.000003   -0.13    -61.85   
    64. D(H  11,N   3,C   2,C   1)     60.78  0.000020   -0.13     60.65   
    65. D(C   5,N   3,C   2,H  10)     39.48  0.000025   -0.17     39.31   
    66. D(H  13,C   4,N   3,C   5)   -111.31  0.000005   -0.05   -111.36   
    67. D(H  13,C   4,N   3,C   2)     -1.22  0.000038   -0.10     -1.31   
    68. D(H  12,C   4,N   3,H  11)      5.98  0.000022   -0.05      5.92   
    69. D(H  12,C   4,N   3,C   5)    111.29  0.000009   -0.02    111.27   
    70. D(H  12,C   4,N   3,C   2)   -138.62  0.000042   -0.07   -138.69   
    71. D(C   5,C   4,N   3,C   2)    110.10  0.000033   -0.05    110.04   
    72. D(H  13,C   4,N   3,H  11)    143.37  0.000018   -0.08    143.29   
    73. D(C   5,C   4,N   3,H  11)   -105.31  0.000013   -0.03   -105.35   
    74. D(H  14,C   5,N   3,C   4)    111.62  0.000026   -0.01    111.61   
    75. D(H  14,C   5,N   3,C   2)      0.30 -0.000032    0.06      0.36   
    76. D(C   4,C   5,N   3,H  11)    105.88 -0.000029    0.02    105.90   
    77. D(C   4,C   5,N   3,C   2)   -111.32 -0.000058    0.07   -111.25   
    78. D(H  15,C   5,C   4,H  12)      0.11 -0.000025    0.04      0.15   
    79. D(H  15,C   5,C   4,N   3)    103.57 -0.000001    0.01    103.58   
    80. D(H  14,C   5,C   4,H  13)      0.19  0.000005   -0.02      0.17   
    81. D(H  14,C   5,C   4,H  12)    154.70 -0.000019    0.04    154.74   
    82. D(H  14,C   5,C   4,N   3)   -101.84  0.000004    0.01   -101.83   
    83. D(N   3,C   5,C   4,H  13)    102.02  0.000001   -0.03    102.00   
    84. D(N   3,C   5,C   4,H  12)   -103.46 -0.000024    0.03   -103.43   
    85. D(H  15,C   5,N   3,H  11)     -5.31  0.000003   -0.00     -5.31   
    86. D(H  15,C   5,N   3,C   4)   -111.19  0.000033   -0.02   -111.21   
    87. D(H  15,C   5,N   3,C   2)    137.49 -0.000025    0.05    137.53   
    88. D(H  15,C   5,C   4,H  13)   -154.41 -0.000000   -0.02   -154.42   
    89. D(H  14,C   5,N   3,H  11)   -142.50 -0.000003    0.01   -142.49   
    ----------------------------------------------------------------------------

         *************************************************************
         *                GEOMETRY OPTIMIZATION CYCLE   3            *
         *************************************************************
---------------------------------
CARTESIAN COORDINATES (ANGSTROEM)
---------------------------------
  C      0.862223   -0.006028   -2.404054
  C      1.166271    0.355785   -1.166484
  C      0.158504    0.895723   -0.212442
  N      0.000971   -0.002005    0.967642
  C     -1.248136   -0.043329    1.754815
  C     -0.871498   -1.189560    0.910903
  H      1.622504   -0.363636   -3.087625
  H     -0.150085    0.062450   -2.790603
  H      2.195360    0.306288   -0.818658
  H      0.443045    1.872786    0.187594
  H     -0.826480    0.983148   -0.673765
  H      0.854848   -0.123742    1.503583
  H     -1.111561   -0.098216    2.827196
  H     -2.005624    0.646155    1.405045
  H     -1.354548   -1.325799   -0.047980
  H     -0.462624   -2.080699    1.369128

----------------------------
CARTESIAN COORDINATES (A.U.)
----------------------------
  NO LB      ZA    FRAG    MASS        X           Y           Z
   0 C     6.0000    0    12.011          1.629365249460633         -0.011390806737842         -4.543002778995959
   1 C     6.0000    0    12.011          2.203933134344447          0.672337019031238         -2.204334597503121
   2 C     6.0000    0    12.011          0.299528541569101          1.692670232886555         -0.401456530358316
   3 N     7.0000    0    14.007          0.001835442030209         -0.003789172959908          1.828578012219442
   4 C     6.0000    0    12.011         -2.358635688457443         -0.081879675832271          3.316119606767108
   5 C     6.0000    0    12.011         -1.646891636072178         -2.247942946521564          1.721356707381144
   6 H     1.0000    0     1.008          3.066088456833666         -0.687173260063171         -5.834766231496268
   7 H     1.0000    0     1.008         -0.283620325015400          0.118014327010642         -5.273474762305940
   8 H     1.0000    0     1.008          4.148628948333757          0.578800971265269         -1.547038550295480
   9 H     1.0000    0     1.008          0.837233671486636          3.539052306234046          0.354500354702189
  10 H     1.0000    0     1.008         -1.561821523084376          1.857879579917495         -1.273231715250071
  11 H     1.0000    0     1.008          1.615428872802219         -0.233837851743412          2.841359154300767
  12 H     1.0000    0     1.008         -2.100545625556173         -0.185601864961150          5.342625937404636
  13 H     1.0000    0     1.008         -3.790080279050086          1.221056034095375          2.655150047844387
  14 H     1.0000    0     1.008         -2.559724367618081         -2.505397272462053         -0.090669963786337
  15 H     1.0000    0     1.008         -0.874233451679957         -3.931950780044569          2.587277905630052

--------------------------------
INTERNAL COORDINATES (ANGSTROEM)
--------------------------------
 C      0   0   0   0.000000     0.000     0.000
 C      1   0   0   1.324739     0.000     0.000
 C      2   1   0   1.489068   122.836     0.000
 N      3   2   1   1.491083   111.116   116.957
 C      4   3   2   1.477030   121.869   205.770
 C      5   4   3   1.472376    59.999   110.042
 H      1   2   3   1.083135   121.242   177.860
 H      1   2   3   1.085761   121.962   359.350
 H      2   1   3   1.087408   120.238   182.665
 H      3   2   1   1.093455   112.475   235.635
 H      3   2   1   1.091172   111.660   357.949
 H      4   3   2   1.015459   113.643    60.647
 H      5   4   3   1.082435   115.006   221.313
 H      5   4   3   1.082365   113.691   358.685
 H      6   5   4   1.082292   119.448   258.169
 H      6   5   4   1.082255   119.669   103.580

---------------------------
INTERNAL COORDINATES (A.U.)
---------------------------
 C      0   0   0   0.000000     0.000     0.000
 C      1   0   0   2.503394     0.000     0.000
 C      2   1   0   2.813931   122.836     0.000
 N      3   2   1   2.817738   111.116   116.957
 C      4   3   2   2.791183   121.869   205.770
 C      5   4   3   2.782387    59.999   110.042
 H      1   2   3   2.046829   121.242   177.860
 H      1   2   3   2.051792   121.962   359.350
 H      2   1   3   2.054904   120.238   182.665
 H      3   2   1   2.066331   112.475   235.635
 H      3   2   1   2.062016   111.660   357.949
 H      4   3   2   1.918940   113.643    60.647
 H      5   4   3   2.045506   115.006   221.313
 H      5   4   3   2.045374   113.691   358.685
 H      6   5   4   2.045235   119.448   258.169
 H      6   5   4   2.045166   119.669   103.580



           ************************************************************
           *        Program running with 8 parallel MPI-processes     *
           *              working on a common directory               *
           ************************************************************
           ************************************************************
           *              Shut down parallel processing               *
           ************************************************************


           ************************************************************
           *        Program running with 8 parallel MPI-processes     *
           *              working on a common directory               *
           ************************************************************

Diagonalization of the overlap matrix:
Smallest eigenvalue                        ... 1.686e-04
Time for diagonalization                   ...    0.016 sec
Threshold for overlap eigenvalues          ... 1.000e-08
Number of eigenvalues below threshold      ... 0
Time for construction of square roots      ...    0.006 sec
Total time needed                          ...    0.022 sec

-------------------
DFT GRID GENERATION
-------------------

General Integration Accuracy     IntAcc      ...  4.340
Radial Grid Type                 RadialGrid  ... Gauss-Chebyshev
Angular Grid (max. acc.)         AngularGrid ... Lebedev-194
Angular grid pruning method      GridPruning ... 3 (G Style)
Weight generation scheme         WeightScheme... Becke
Basis function cutoff            BFCut       ...    1.0000e-11
Integration weight cutoff        WCut        ...    1.0000e-14
Grids for H and He will be reduced by one unit

# of grid points (after initial pruning)     ...  35004 (   0.0 sec)
# of grid points (after weights+screening)   ...  32312 (   0.0 sec)
nearest neighbour list constructed           ...    0.0 sec
Grid point re-assignment to atoms done       ...    0.0 sec
Grid point division into batches done        ...    0.0 sec
Reduced shell lists constructed in    0.1 sec

Total number of grid points                  ...    32312
Total number of batches                      ...      513
Average number of points per batch           ...       62
Average number of grid points per atom       ...     2020
Average number of shells per batch           ...    81.95 (77.32%)
Average number of basis functions per batch  ...   194.89 (79.23%)
Average number of large shells per batch     ...    66.50 (81.14%)
Average number of large basis fcns per batch ...   156.83 (80.47%)
Maximum spatial batch extension              ...   3.44,  7.79,  4.56 au
Average spatial batch extension              ...   0.17,  0.18,  0.17 au

Time for grid setup =    0.139 sec

--------------
SCF ITERATIONS
--------------
ITER       Energy         Delta-E        Max-DP      RMS-DP      [F,P]     Damp
               ***  Starting incremental Fock matrix formation  ***
                      *** Initiating the SOSCF procedure ***
                      *** Re-Reading the Fockian *** 
                      *** Removing any level shift *** 
ITER      Energy       Delta-E        Grad      Rot      Max-DP    RMS-DP
  0   -250.78262751 -250.7826275094  0.000999  0.000999  0.001225  0.000032
               *** Restarting incremental Fock matrix formation ***
  1   -250.78268384  -0.0000563335  0.000477  0.001331  0.000728  0.000017
  2   -250.78269323  -0.0000093883  0.000097  0.000341  0.000173  0.000004
  3   -250.78269354  -0.0000003080  0.000049  0.000136  0.000091  0.000002
  4   -250.78269354   0.0000000002  0.000054  0.000080  0.000048  0.000001
  5   -250.78269358  -0.0000000421  0.000005  0.000013  0.000009  0.000000
  6   -250.78269358   0.0000000004  0.000005  0.000007  0.000007  0.000000
                  ***Gradient check signals convergence***
              ***Rediagonalizing the Fockian in SOSCF/NRSCF***

               *****************************************************
               *                     SUCCESS                       *
               *           SCF CONVERGED AFTER   7 CYCLES          *
               *****************************************************

Setting up the final grid:

General Integration Accuracy     IntAcc      ...  5.010
Radial Grid Type                 RadialGrid  ... Gauss-Chebyshev
Angular Grid (max. acc.)         AngularGrid ... Lebedev-434
Angular grid pruning method      GridPruning ... 3 (G Style)
Weight generation scheme         WeightScheme... Becke
Basis function cutoff            BFCut       ...    1.0000e-11
Integration weight cutoff        WCut        ...    1.0000e-14
Grids for H and He will be reduced by one unit

# of grid points (after initial pruning)     ... 131000 (   0.0 sec)
# of grid points (after weights+screening)   ... 119629 (   0.1 sec)
nearest neighbour list constructed           ...    0.0 sec
Grid point re-assignment to atoms done       ...    0.0 sec
Grid point division into batches done        ...    0.7 sec
Reduced shell lists constructed in    0.9 sec

Total number of grid points                  ...   119629
Total number of batches                      ...     1878
Average number of points per batch           ...       63
Average number of grid points per atom       ...     7477
Average number of shells per batch           ...    81.13 (76.54%)
Average number of basis functions per batch  ...   193.37 (78.61%)
Average number of large shells per batch     ...    65.72 (81.01%)
Average number of large basis fcns per batch ...   155.70 (80.52%)
Maximum spatial batch extension              ...   2.79,  6.24,  4.19 au
Average spatial batch extension              ...   0.11,  0.12,  0.11 au

Final grid set up in    1.0 sec
Final integration                            ... done (   0.5 sec)
Change in XC energy                          ...     0.000422524
Integrated number of electrons               ...    46.000038118
Previous integrated no of electrons          ...    45.999632761
Total Energy       :         -250.78227106 Eh           -6824.13253 eV
  Last Energy change         ...   -1.5804e-09  Tolerance :   1.0000e-08
  Last MAX-Density change    ...    1.9660e-06  Tolerance :   1.0000e-07
             **** THE GBW FILE WAS UPDATED (0471_+.gbw) ****
             **** DENSITY FILE WAS UPDATED (0471_+.scfp.tmp) ****
             **** ENERGY FILE WAS UPDATED (0471_+.en.tmp) ****
Total SCF time: 0 days 0 hours 0 min 26 sec 
           ************************************************************
           *              Shut down parallel processing               *
           ************************************************************

-------------------------   --------------------
FINAL SINGLE POINT ENERGY      -250.782271057930
-------------------------   --------------------



           ************************************************************
           *        Program running with 8 parallel MPI-processes     *
           *              working on a common directory               *
           ************************************************************
------------------------------------------------------------------------------
                         ORCA SCF GRADIENT CALCULATION
------------------------------------------------------------------------------

Gradient of the Kohn-Sham DFT energy:
Kohn-Sham wavefunction type      ... RKS
Hartree-Fock exchange scaling    ...    0.250
Number of operators              ...    1
Number of atoms                  ...   16
Basis set dimensions             ...  246
Integral neglect threshold       ... 2.5e-11
Integral primitive cutoff        ... 2.5e-12

Nuclear repulsion gradient       ... done
One Electron Gradient            ... done
Pre-screening matrix             ... done
Starting the two electron gradient:
Two electron gradient done
Exchange-correlation gradient    ... done

------------------
CARTESIAN GRADIENT
------------------

   1   C   :    0.000076079    0.000078775    0.000016354
   2   C   :   -0.000033741   -0.000066506   -0.000098219
   3   C   :    0.000078175    0.000002838    0.000031046
   4   N   :   -0.000026085    0.000045530    0.000002727
   5   C   :   -0.000030349   -0.000021711    0.000026764
   6   C   :   -0.000024194   -0.000003014   -0.000047519
   7   H   :    0.000010392    0.000034979   -0.000004762
   8   H   :   -0.000041167   -0.000052594    0.000017963
   9   H   :   -0.000029670   -0.000042269    0.000004119
  10   H   :   -0.000010095    0.000028656   -0.000022675
  11   H   :    0.000011183   -0.000023958    0.000029701
  12   H   :   -0.000045810    0.000010703   -0.000004467
  13   H   :   -0.000007600    0.000021577    0.000024689
  14   H   :    0.000023852   -0.000010727   -0.000000259
  15   H   :    0.000006165    0.000010726    0.000021980
  16   H   :    0.000042866   -0.000013006    0.000002556

Norm of the cartesian gradient     ...    0.000246605
RMS gradient                       ...    0.000035594
MAX gradient                       ...    0.000098219

-------
TIMINGS
-------

Total SCF gradient time            ...       20.892 sec

One electron gradient       ....       0.208 sec  (  1.0%)
Prescreening matrices       ....       0.850 sec  (  4.1%)
Two electron gradient       ....      15.796 sec  ( 75.6%)
XC gradient                 ....       2.306 sec  ( 11.0%)
           ************************************************************
           *              Shut down parallel processing               *
           ************************************************************
------------------------------------------------------------------------------
                         ORCA GEOMETRY RELAXATION STEP
------------------------------------------------------------------------------

Reading the OPT-File                    .... done
Getting information on internals        .... done
Copying old internal coords+grads       .... done
Making the new internal coordinates     .... (new redundants).... done
Validating the new internal coordinates .... (new redundants).... done
Calculating the B-matrix                .... done
Calculating the G,G- and P matrices     .... done
Transforming gradient to internals      .... done
Projecting the internal gradient        .... done
Number of atoms                         ....  16
Number of internal coordinates          ....  89
Current Energy                          ....  -250.782271058 Eh
Current gradient norm                   ....     0.000246605 Eh/bohr
Maximum allowed component of the step   ....  0.300
Current trust radius                    ....  0.300
Updating the Hessian (BFGS)             .... done
Forming the augmented Hessian           .... done
Diagonalizing the augmented Hessian     .... done
Last element of RFO vector              ....  0.999933801
Lowest eigenvalues of augmented Hessian:
 -0.000000751  0.003832694  0.013721969  0.027520784  0.035021807
Length of the computed step             ....  0.011507018
The final length of the internal step   ....  0.011507018
Converting the step to cartesian space:
 Initial RMS(Int)=    0.0012197415
Transforming coordinates:
 Iter   0:  RMS(Cart)=    0.0028420079 RMS(Int)=    0.0012196934
 Iter   1:  RMS(Cart)=    0.0000054767 RMS(Int)=    0.0000026530
 Iter   2:  RMS(Cart)=    0.0000000219 RMS(Int)=    0.0000000096
done
Storing new coordinates                 .... done

                                .--------------------.
          ----------------------|Geometry convergence|---------------------
          Item                value                 Tolerance   Converged
          -----------------------------------------------------------------
          Energy change      -0.00000298            0.00000100      NO
          RMS gradient        0.00002172            0.00003000      YES
          MAX gradient        0.00009390            0.00010000      YES
          RMS step            0.00121974            0.00060000      NO
          MAX step            0.00461075            0.00100000      NO
          ....................................................
          Max(Bonds)      0.0000      Max(Angles)    0.03
          Max(Dihed)        0.26      Max(Improp)    0.00
          -----------------------------------------------------------------

The optimization has not yet converged - more geometry cycles are needed


    ---------------------------------------------------------------------------
                         Redundant Internal Coordinates
                            (Angstroem and degrees)

        Definition                    Value    dE/dq     Step     New-Value
    ----------------------------------------------------------------------------
[...]
      8      -0.010317  -0.107437  -0.017181  -0.044364   0.004859  -0.013084
      9       0.024138  -0.004746   0.033239  -0.039022  -0.001154  -0.002318
     10       0.026123   0.060108   0.056141  -0.035132   0.026049   0.004199
     11       0.002187  -0.019346  -0.055481   0.037523  -0.000256   0.012291
     12      -0.010955   0.005935   0.020119  -0.010015  -0.010802  -0.034363
     13       0.010254  -0.014750  -0.005221  -0.006397   0.011140   0.030492
     14       0.010731   0.013271   0.010085  -0.012666   0.014836   0.037014
     15      -0.005520  -0.005618   0.017351  -0.016288   0.006210   0.002333
     16      -0.019016  -0.012827  -0.003098   0.008714   0.045624   0.021320
     17      -0.015556  -0.002627   0.010354  -0.003778   0.023340   0.009029
     18      -0.035535   0.114522  -0.333765  -0.300030   0.113613  -0.112374
     19       0.008343   0.052945  -0.056559  -0.042933   0.024402  -0.022998
     20      -0.033421   0.113582  -0.349722  -0.313721   0.114554  -0.112632
     21       0.021517  -0.048515   0.147077   0.131466  -0.051426   0.052014
     22      -0.130216   0.056296  -0.142401  -0.150012   0.041340  -0.040663
     23      -0.379380   0.232315  -0.364665  -0.338131   0.126393  -0.122893
     24      -0.158137  -0.019828   0.075060   0.047451  -0.011355   0.013240
     25       0.317996  -0.026659  -0.084639  -0.075321   0.003073  -0.007938
     26       0.763949  -0.102193  -0.209843  -0.117029   0.037101  -0.046091
     27      -0.128145  -0.397946   0.068506   0.197535   0.378829  -0.370244
     28      -0.068359  -0.163217  -0.096496  -0.078925  -0.180841   0.146540
     29       0.259493   0.606536   0.102223   0.096117   0.229599  -0.160801
     30       0.054148  -0.205009  -0.005151  -0.134713  -0.018304   0.001626
     31       0.003169  -0.055404   0.013501  -0.365530  -0.435608   0.411251
     32      -0.052519   0.486703  -0.069621   0.271111  -0.112793   0.133031
     33       0.036213  -0.045239  -0.292849   0.251895  -0.031528   0.015526
     34       0.008079  -0.037680  -0.364455   0.341316  -0.044065   0.006009
     35      -0.015915   0.018370   0.362890  -0.339543   0.030869  -0.014996
     36      -0.028679  -0.131254  -0.220863   0.122679   0.191042   0.362343
     37       0.032934   0.052767   0.057995  -0.010364  -0.150300  -0.280038
     38       0.017266   0.040266   0.052935  -0.035635  -0.023278  -0.037644
     39      -0.035824   0.053008   0.007928   0.000352   0.066119   0.106432
     40       0.004678   0.061894   0.051890  -0.022383  -0.037521  -0.066368
     41       0.043832   0.053297   0.148629  -0.072139  -0.239205  -0.441510
     42      -0.034382   0.024137   0.059478  -0.035244   0.067038   0.027396
     43      -0.061852  -0.030941  -0.112182   0.062098  -0.425185  -0.275195
     44       0.001609  -0.018152   0.004113  -0.003999   0.051085   0.033359
     45       0.000435  -0.027958  -0.135608   0.094255  -0.197159  -0.108134
     46      -0.020488  -0.031777  -0.124764   0.085441  -0.232623  -0.142338
     47      -0.018371  -0.013552  -0.073249   0.033300  -0.322914  -0.201766
                 36         37         38         39         40         41    
      0       0.001633  -0.076478  -0.000365   0.000231   0.028326  -0.017235
      1       0.001828  -0.107075  -0.000113  -0.000551   0.014204  -0.002024
      2       0.006592  -0.361486  -0.000110  -0.001790   0.059681  -0.016031
      3       0.001685   0.030677  -0.001174  -0.021060   0.015548   0.076001
      4      -0.005567   0.137961   0.000451   0.001149  -0.003142  -0.001374
      5      -0.005166   0.411016  -0.000117  -0.007014  -0.002038   0.031062
      6      -0.029340   0.009007   0.023435   0.072730   0.006920   0.017506
      7       0.012638  -0.025796  -0.064964   0.033385   0.002464   0.008301
      8      -0.007656  -0.054352  -0.006424   0.044342   0.004111   0.012263
      9       0.046826   0.008473  -0.000493  -0.001134  -0.000097   0.000099
     10       0.045231   0.005209  -0.000338   0.000553   0.000013   0.000079
     11      -0.031785  -0.013801  -0.000080  -0.000751   0.000042  -0.000322
     12      -0.060575  -0.003421  -0.000311  -0.001198  -0.000270  -0.002286
     13       0.050467   0.001339   0.000118   0.001210   0.000286   0.002342
     14       0.073810   0.004455   0.000035   0.000421   0.000251   0.002463
     15      -0.013205  -0.001052   0.000183  -0.000576  -0.000103  -0.000161
     16      -0.104463  -0.005149   0.000521  -0.001056  -0.000487   0.000040
     17      -0.040308  -0.000783  -0.000509  -0.000775  -0.000360  -0.000131
     18       0.000072   0.431941  -0.005234  -0.026103   0.412205  -0.034610
     19       0.008882  -0.061629   0.000921   0.012009  -0.189277   0.014723
     20       0.002775   0.093206   0.003454   0.020909  -0.354144   0.028324
     21       0.002029  -0.365127   0.008325   0.020609  -0.732552   0.224426
     22      -0.003633   0.150143  -0.000619  -0.002480   0.047824  -0.014085
     23       0.004733   0.287527   0.001318   0.005146  -0.270615   0.082881
     24       0.005319   0.294087   0.007626   0.247988  -0.197724  -0.884082
     25      -0.008187  -0.155789   0.000824  -0.010146   0.008258   0.036830
     26      -0.022646  -0.255937   0.002584   0.086338  -0.063800  -0.293906
     27       0.132539   0.095407   0.227148  -0.132588  -0.010380  -0.028882
     28      -0.111919  -0.034009   0.737760  -0.470437  -0.035517  -0.113549
     29       0.171185  -0.081466   0.307889  -0.192295  -0.014902  -0.049762
     30      -0.014444  -0.075100  -0.496108  -0.724116  -0.075902  -0.188162
     31      -0.137751   0.022255   0.031992   0.062549   0.007159   0.016386
     32      -0.072109   0.139343  -0.238965  -0.338983  -0.032038  -0.085047
     33      -0.120740  -0.022716   0.005099   0.017658   0.001446   0.004952
     34      -0.173177  -0.017758  -0.000748   0.002233   0.000630   0.001419
     35       0.179233   0.027825   0.002505   0.005532  -0.001184  -0.002537
     36       0.318719   0.008965  -0.001515  -0.002452  -0.000731  -0.005979
     37      -0.281003  -0.013796   0.000018   0.001376   0.000361   0.003318
     38       0.006970   0.002532   0.001748  -0.013604  -0.004580  -0.044487
     39       0.094434   0.006901   0.001533   0.015037   0.003211   0.030410
     40      -0.038891   0.002947  -0.003625  -0.014384  -0.003144  -0.028496
     41      -0.431843  -0.017527   0.002587   0.008366   0.001819   0.015530
     42      -0.062922  -0.004557   0.001244   0.005861   0.003107  -0.000775
     43       0.459406   0.015744  -0.000759   0.000011   0.000538  -0.000734
     44      -0.089869  -0.003765   0.003591   0.013705   0.006874  -0.000875
     45       0.183514   0.004176  -0.000637  -0.003454  -0.002127   0.001652
     46       0.195116   0.004238   0.001390   0.004835   0.004202  -0.003725
     47       0.368280   0.013735  -0.000685  -0.003919  -0.002555   0.001351
                 42         43         44         45         46         47    
      0       0.000911   0.000065  -0.090836   0.000510   0.000324  -0.000021
      1       0.000097  -0.000146   0.025824  -0.000115  -0.000044   0.000010
      2       0.000790  -0.000337   0.028469  -0.000121  -0.000025  -0.000009
      3      -0.004089  -0.001195  -0.009464   0.000270  -0.000010  -0.000404
      4       0.000106   0.000067   0.000022  -0.000078  -0.000020  -0.000004
      5      -0.001699  -0.000259  -0.004422   0.000088  -0.000165  -0.000076
      6      -0.002124  -0.001880  -0.000471  -0.000227   0.000711   0.001178
      7      -0.001163  -0.000457  -0.000521   0.000405   0.000066   0.000256
      8      -0.001701  -0.001488  -0.000843   0.000244   0.000520   0.000514
      9       0.000993   0.002020   0.000023   0.000078  -0.001707   0.061969
     10       0.000412   0.001652   0.000035   0.000175   0.001082  -0.008987
     11      -0.000725  -0.001135  -0.000040   0.000318  -0.002113   0.038982
     12      -0.032440  -0.014684  -0.000111  -0.038114   0.032244  -0.000202
     13       0.032557   0.015245   0.000096   0.031857  -0.026839   0.000687
     14       0.038002   0.017186  -0.000179  -0.060172   0.051442   0.001456
     15       0.001733  -0.004682   0.000269   0.032857   0.037442   0.000586
     16       0.018807  -0.055955  -0.000318  -0.028013  -0.032246  -0.001532
     17       0.008763  -0.027513   0.000447   0.051941   0.058975  -0.000125
     18       0.001337  -0.003527   0.569652  -0.002892  -0.001601   0.000055
     19      -0.000595   0.001746  -0.270033   0.001512   0.000660  -0.000123
     20      -0.001057   0.002972  -0.516993   0.002690   0.001492  -0.000185
     21      -0.011235   0.002957   0.522146  -0.003435  -0.002102   0.001001
     22       0.000623   0.000016  -0.031000  -0.000044  -0.000055  -0.000111
     23      -0.004018   0.001085   0.202944  -0.001216  -0.000772   0.000387
     24       0.047778   0.013411   0.096734  -0.002180   0.000003   0.001842
     25      -0.002070  -0.000723  -0.003284   0.000068   0.000004   0.000256
     26       0.015685   0.004137   0.033598  -0.000874   0.000374   0.001229
     27       0.003564   0.003186   0.001538  -0.000504  -0.000553  -0.001970
     28       0.013851   0.010465   0.004264  -0.000357  -0.000325  -0.004127
     29       0.007305   0.004825   0.002189  -0.000834  -0.001395  -0.001137
     30       0.023927   0.022580   0.010035   0.001263  -0.007215  -0.014419
     31      -0.002882  -0.003056  -0.001808  -0.000153   0.001975   0.003420
     32       0.011504   0.012080   0.001561   0.000869  -0.005105  -0.010914
     33       0.002219   0.005612   0.000348   0.001126   0.012722  -0.835611
     34      -0.000001   0.001193  -0.000330  -0.005628  -0.007120   0.123963
     35       0.000437   0.001467   0.001082  -0.005441   0.013984  -0.529209
     36      -0.091578  -0.037110   0.000292   0.070263  -0.063385  -0.002757
     37       0.042207   0.019402  -0.000072  -0.031914   0.020905   0.002270
     38      -0.647687  -0.250834   0.001510   0.524607  -0.457055  -0.011648
     39       0.455731   0.180256   0.001181   0.373370  -0.316803  -0.010033
     40      -0.414320  -0.161837  -0.001024  -0.338854   0.296218   0.002173
     41       0.220147   0.088999   0.000478   0.175289  -0.147696   0.000470
     42      -0.115942   0.300567  -0.001608  -0.208573  -0.232729  -0.007739
     43      -0.029527   0.070049  -0.000286  -0.053321  -0.063594  -0.004735
     44      -0.229478   0.584573  -0.003614  -0.405631  -0.469514  -0.004762
     45       0.099481  -0.249376  -0.001746  -0.173462  -0.207185  -0.005041
     46      -0.213608   0.531250   0.003980   0.377920   0.440318   0.008845
     47       0.111091  -0.285645  -0.001880  -0.198316  -0.224563  -0.006895


-----------
IR SPECTRUM
-----------

 Mode    freq (cm**-1)   T**2         TX         TY         TZ
-------------------------------------------------------------------
   6:        74.77    0.749440  (  0.325701   0.699639   0.392254)
   7:        94.70    1.313538  (  0.321816  -0.730647  -0.822270)
   8:       216.46    0.532459  ( -0.081927  -0.451438   0.567406)
   9:       360.41    1.040878  (  0.893701   0.267831   0.412847)
  10:       397.32    0.681611  ( -0.392248   0.651121   0.322170)
  11:       428.01    1.413557  ( -0.046463  -0.381663   1.125047)
  12:       638.38   16.442143  ( -1.500922  -3.526031   1.325323)
  13:       782.70    0.588784  (  0.676009   0.347966  -0.103511)
  14:       837.89    4.753560  (  1.480473  -0.235073   1.583193)
  15:       877.82    3.593458  (  0.155614   0.450206   1.834818)
  16:       920.00    6.937755  ( -0.847038  -2.370980  -0.773781)
  17:       940.21    8.919287  ( -1.928776   0.709627   2.166920)
  18:      1001.01  100.888505  ( -6.233787  -4.401119   6.531351)
  19:      1005.87    6.221481  ( -0.155236  -2.480727  -0.208270)
  20:      1018.69   52.307266  ( -0.401088  -7.024860   1.672645)
  21:      1030.52    1.830745  ( -0.098067   1.196573  -0.623972)
  22:      1112.21    0.657640  ( -0.346692  -0.357560  -0.639996)
  23:      1148.81    1.892597  (  1.063863  -0.828209   0.273612)
  24:      1152.91   13.587229  (  0.124280  -2.030141  -3.074136)
  25:      1175.98    0.901976  (  0.392443  -0.497305  -0.707568)
  26:      1214.59   11.551687  (  0.402166  -2.644478  -2.096827)
  27:      1216.80    1.110503  (  0.253530  -0.140995  -1.013087)
  28:      1268.76   18.334280  ( -2.995423  -1.291830   2.773607)
  29:      1313.33    4.692764  ( -1.382815   0.021035  -1.667376)
  30:      1329.35    6.060728  ( -1.120878  -0.293532  -2.172142)
  31:      1370.83    3.090052  (  0.957934  -0.137064  -1.467524)
  32:      1455.61   14.656106  ( -2.636151  -2.767763   0.215175)
  33:      1461.40   38.814205  (  2.835558   0.658752  -5.508163)
  34:      1475.26   20.218593  (  2.559720  -3.657770  -0.535860)
  35:      1483.63   10.052063  ( -1.184226  -1.166953  -2.699610)
  36:      1520.29    7.727510  (  0.348377  -1.668625   2.195868)
  37:      1725.70    1.554565  (  0.994282   0.206185  -0.723502)
  38:      3078.36    1.978639  (  0.967417  -0.688266  -0.754343)
  39:      3139.27    0.280015  (  0.471315   0.063205  -0.232125)
  40:      3160.10    2.033925  (  1.381990  -0.281406  -0.211751)
  41:      3169.88    0.451703  (  0.591972  -0.028283   0.316972)
  42:      3173.07    3.519652  (  0.805732  -1.120300  -1.270974)
  43:      3175.39    1.795707  (  0.449041   1.245690  -0.205730)
  44:      3256.79    0.262552  ( -0.165833  -0.118257  -0.470177)
  45:      3270.35    0.076161  (  0.200758  -0.113949   0.151239)
  46:      3280.49   10.746820  ( -1.492634   1.366079  -2.579281)
  47:      3540.39   83.549503  ( -7.995428   0.254725  -4.422415)

The first frequency considered to be a vibration is 6
The total number of vibrations considered is 42


--------------------------
THERMOCHEMISTRY AT 298.15K
--------------------------

Temperature         ... 298.15 K
Pressure            ... 1.00 atm
Total Mass          ... 84.14 AMU

Throughout the following assumptions are being made:
  (1) The electronic state is orbitally nondegenerate
  (2) There are no thermally accessible electronically excited states
  (3) Hindered rotations indicated by low frequency modes) are not
      treated as such but are treated as vibrations and this may
      case some error
  (4) All equations used are the standard statistical mechanics
      equations for an ideal gas
  (5) All vibrations are strinctly harmonic


------------
INNER ENERGY
------------

The inner energy is: U= E(el) + E(ZPE) + E(vib) + E(rot) + E(trans)
    E(el)   - is the total energy from the electronic structure calculation
              = E(kin-el) + E(nuc-el) + E(el-el) + E(nuc-nuc)
    E(ZPE)  - the the zero temperature vibrational energy from the frequency calculation
    E(vib)  - the the finite temperature correction to E(ZPE) due to population
              of excietd vibrational states
    E(rot)  - is the rotational thermal energy
    E(trans)- is the translational thermal energy

Summary of contributions to the inner energy U:
Electronic energy                ...   -250.78227194 Eh
Zero point energy                ...      0.14647322 Eh      91.91 kcal/mol
Thermal vibrational correction   ...      0.00378091 Eh       2.37 kcal/mol
Thermal rotational correction    ...      0.00141627 Eh       0.89 kcal/mol
Thermal translational correction ...      0.00141627 Eh       0.89 kcal/mol
-----------------------------------------------------------------------
Total thermal energy                   -250.62918527 Eh


Summary of corrections to the electronic energy:
(perhaps to be used in another calculation)
Total thermal correction                  0.00661345 Eh       4.15 kcal/mol
Non-thermal (ZPE) correction              0.14647322 Eh      91.91 kcal/mol
-----------------------------------------------------------------------
Total correction                          0.15308667 Eh      96.06 kcal/mol


--------
ENTHALPY
--------

The enthalpy is H = U + kB*T
                kB is Boltzmann's constant
Total free energy                 ...   -250.62918527 Eh 
Thermal Enthalpy correction       ...      0.00094421 Eh       0.59 kcal/mol
-----------------------------------------------------------------------
Total Enthalpy                    ...   -250.62824106 Eh


-------
ENTROPY
-------

The entropy contributions are T*S = T*(S(el)+S(vib)+S(rot)+S(trans)
     S(el)   - electronic entropy
     S(vib)  - vibrational entropy
     S(rot)  - rotational entropy
     S(trans)- translational entropy
The entropies will be listed as mutliplied by the temperature to get
units of energy

Electronic entropy                ...      0.00000000 Eh      0.00 kcal/mol
Vibrational entropy               ...      0.00690287 Eh      4.33 kcal/mol
Rotational entropy                ...      0.01161957 Eh      7.29 kcal/mol
Translational entropy             ...      0.01862670 Eh     11.69 kcal/mol
-----------------------------------------------------------------------
Final entropy term                ...      0.03714914 Eh     23.31 kcal/mol


CAUTION: The rotational entropy is not quite correctly treated here
         because it includes a symmetry number that is not yet correctly
         implemented in ORCA!
For a nonlinear molecule the correct rotational entropy is:
    S(rot) = R*(ln(qrot/sn)+1.5)
    R    = 8.31441 J/mol/K = 1.987191683e-3 kcal/mol/K
    qrot = 148022.4013405
    sn is the rotational symmetry number. We have assumed 3 here
       if it is different for your molecule then you should correct
       the printed rotational entropy by manually evaluating the equation
       as given above

For convenience we print out the resulting values for sn=1 - 12:
 sn= 1  qrot/sn=  148022.4013 T*S(rot)=     7.94 kcal/mol T*S(tot)=    23.96 kcal/mol
 sn= 2  qrot/sn=   74011.2007 T*S(rot)=     7.53 kcal/mol T*S(tot)=    23.55 kcal/mol
 sn= 3  qrot/sn=   49340.8004 T*S(rot)=     7.29 kcal/mol T*S(tot)=    23.31 kcal/mol
 sn= 4  qrot/sn=   37005.6003 T*S(rot)=     7.12 kcal/mol T*S(tot)=    23.14 kcal/mol
 sn= 5  qrot/sn=   29604.4803 T*S(rot)=     6.99 kcal/mol T*S(tot)=    23.01 kcal/mol
 sn= 6  qrot/sn=   24670.4002 T*S(rot)=     6.88 kcal/mol T*S(tot)=    22.90 kcal/mol
 sn= 7  qrot/sn=   21146.0573 T*S(rot)=     6.79 kcal/mol T*S(tot)=    22.81 kcal/mol
 sn= 8  qrot/sn=   18502.8002 T*S(rot)=     6.71 kcal/mol T*S(tot)=    22.73 kcal/mol
 sn= 9  qrot/sn=   16446.9335 T*S(rot)=     6.64 kcal/mol T*S(tot)=    22.66 kcal/mol
 sn=10  qrot/sn=   14802.2401 T*S(rot)=     6.58 kcal/mol T*S(tot)=    22.60 kcal/mol
 sn=11  qrot/sn=   13456.5819 T*S(rot)=     6.52 kcal/mol T*S(tot)=    22.54 kcal/mol
 sn=12  qrot/sn=   12335.2001 T*S(rot)=     6.47 kcal/mol T*S(tot)=    22.49 kcal/mol


-------------------
GIBBS FREE ENTHALPY
-------------------

The Gibbs free enthalpy is G = H - T*S

Total enthalpy                    ...   -250.62824106 Eh 
Total entropy correction          ...     -0.03714914 Eh    -23.31 kcal/mol
-----------------------------------------------------------------------
Final Gibbs free enthalpy         ...   -250.66539020 Eh

For completeness - the Gibbs free enthalpy minus the electronic energy
G-E(el)                           ...      0.11688174 Eh     73.34 kcal/mol


Timings for individual modules:

Sum of individual times         ...     1114.015 sec (=  18.567 min)
GTO integral calculation        ...       13.428 sec (=   0.224 min)   1.2 %
SCF iterations                  ...      169.493 sec (=   2.825 min)  15.2 %
SCF Gradient evaluation         ...       98.463 sec (=   1.641 min)   8.8 %
Geometry relaxation             ...        0.314 sec (=   0.005 min)   0.0 %
Analytical frequency calculation...      832.317 sec (=  13.872 min)  74.7 %
                             ****ORCA TERMINATED NORMALLY****
TOTAL RUN TIME: 0 days 0 hours 18 minutes 35 seconds 814 msec
