
                                 *****************
                                 * O   R   C   A *
                                 *****************

           --- An Ab Initio, DFT and Semiempirical electronic structure package ---

                  #######################################################
                  #                        -***-                        #
                  #  Department of molecular theory and spectroscopy    #
                  #              Directorship: Frank Neese              #
                  # Max Planck Institute for Chemical Energy Conversion #
                  #                  D-45470 Muelheim/Ruhr              #
                  #                       Germany                       #
                  #                                                     #
                  #                  All rights reserved                #
                  #                        -***-                        #
                  #######################################################


                         Program Version 3.0.3 - RELEASE   -


 With contributions from (in alphabetic order):
   Ute Becker             : Parallelization
   Dmytro Bykov           : SCF Hessian
   Dmitry Ganyushin       : Spin-Orbit,Spin-Spin,Magnetic field MRCI
   Andreas Hansen         : Spin unrestricted coupled pair/coupled cluster methods
   Dimitrios Liakos       : Extrapolation schemes; parallel MDCI
   Robert Izsak           : Overlap fitted RIJCOSX, COSX-SCS-MP3
   Christian Kollmar      : KDIIS, OOCD, Brueckner-CCSD(T), CCSD density
   Simone Kossmann        : Meta GGA functionals, TD-DFT gradient, OOMP2, MP2 Hessian
   Taras Petrenko         : DFT Hessian,TD-DFT gradient, ASA and ECA modules, normal mode analysis, Resonance Raman, ABS, FL, XAS/XES, NRVS
   Christoph Reimann      : Effective Core Potentials
   Michael Roemelt        : Restricted open shell CIS
   Christoph Riplinger    : Improved optimizer, TS searches, QM/MM, DLPNO-CCSD
   Barbara Sandhoefer     : DKH picture change effects
   Igor Schapiro          : Molecular dynamics
   Kantharuban Sivalingam : CASSCF convergence, NEVPT2
   Boris Wezisla          : Elementary symmetry handling
   Frank Wennmohs         : Technical directorship


 We gratefully acknowledge several colleagues who have allowed us to
 interface, adapt or use parts of their codes:
   Stefan Grimme, W. Hujo, H. Kruse, T. Risthaus : VdW corrections, initial TS optimization,
                                                   DFT functionals, gCP
   Ed Valeev                                     : LibInt (2-el integral package), F12 methods
   Garnet Chan, S. Sharma, R. Olivares           : DMRG
   Ulf Ekstrom                                   : XCFun DFT Library
   Mihaly Kallay                                 : mrcc  (arbitrary order and MRCC methods)
   Andreas Klamt, Michael Diedenhofen            : otool_cosmo (COSMO solvation model)
   Frank Weinhold                                : gennbo (NPA and NBO analysis)
   Christopher J. Cramer and Donald G. Truhlar   : smd solvation model


 Your calculation uses the libint2 library for the computation of 2-el integrals
 For citations please refer to: http://libint.valeyev.net

 This ORCA versions uses:
   CBLAS   interface :  Fast vector & matrix operations
   LAPACKE interface :  Fast linear algebra routines
   SCALAPACK package :  Parallel linear algebra routines


Your calculation utilizes the basis: Ahlrichs-TZV
Cite in your paper:
H - Kr: A. Schaefer, H. Horn and R. Ahlrichs, J. Chem. Phys. 97, 2571 (1992).

The def2-TZV basis will be loaded
Cite in your paper:
 	F. Weigend, R. Ahlrichs, Phys. Chem. Chem. Phys. 2005, 7, 3297.

================================================================================
                                        WARNINGS
                       Please study these warnings very carefully!
================================================================================
Now building the actual basis set
WARNING: Geometry optimizations can change the point-group symmetry!

WARNING: Geometry Optimization
  ===> : Switching off AutoStart
         For restart on a previous wavefunction, please use MOREAD


INFO   : the flag for use of LIBINT has been found!

================================================================================
                                       INPUT FILE
================================================================================
NAME = 0963_+.inp
|  1> ! NORI PBE0 def2-TZVP UseSym TightOPT Freq TightSCF Grid3 FinalGrid5 XYZFile
|  2> % pal
|  3>     nprocs 8
|  4> end
|  5> %method
|  6>     SymThresh 5.0e-2
|  7> end
|  8> % geom 
|  9>     MaxIter 10
| 10> end 
| 11> % maxcore 2000
| 12> % output
| 13>     printlevel mini
| 14>     print[ P_Basis ] 0
| 15>     print[ P_SCFInfo ] 1
| 16>     print[ P_SCFIterInfo ] 1
| 17>     print[ P_OrbEn ] 0
| 18>     print[ P_Cartesian ] 0
| 19> end
| 20> % elprop
| 21>     Dipole false
| 22> end
| 23> *xyz 1 1
| 24>  C       -0.3024322102     0.7687595262     0.2263508329 
| 25>  N       -0.4174281161    -0.6439155926    -0.2154989613 
| 26>  C        0.9125439457    -0.0551416529     0.1384109129 
| 27>  C        1.5841659772    -0.5920781540     1.3530523660 
| 28>  C        2.8321382862    -1.3471835683     1.2373104160 
| 29>  O        2.8201979329     0.0231085352     1.6005705926 
| 30>  H       -0.7416096697     0.9566930603     1.1984974520 
| 31>  H       -0.5231826964     1.4930697622    -0.5469652912 
| 32>  H       -0.8283426451    -1.3146551848     0.4263182288 
| 33>  H       -0.6216132933    -0.8320967445    -1.1911261595 
| 34>  H        1.5505487281     0.0821410841    -0.7280302967 
| 35>  H        0.9438193750    -0.7342421146     2.2255529666 
| 36>  H        3.2442900440    -1.5650289290     0.2556917469 
| 37>  H        3.0960043418    -2.0369100275     2.0330951939 
| 38> *
| 39> 
| 40>                          ****END OF INPUT****
================================================================================

The point group is C1 - hence turning off symmetry
If this is a round-off problem, please increase the symmetry
        detection tolerance (%method SymThresh)


                       *****************************
                       * Geometry Optimization Run *
                       *****************************

Geometry optimization settings:
Update method            Update   .... BFGS
Choice of coordinates    CoordSys .... Redundant Internals
Initial Hessian          InHess   .... Almoef's Model

Convergence Tolerances:
Energy Change            TolE     ....  1.0000e-06 Eh
Max. Gradient            TolMAXG  ....  1.0000e-04 Eh/bohr
RMS Gradient             TolRMSG  ....  3.0000e-05 Eh/bohr
Max. Displacement        TolMAXD  ....  1.0000e-03 bohr
RMS Displacement         TolRMSD  ....  6.0000e-04 bohr

------------------------------------------------------------------------------
                        ORCA OPTIMIZATION COORDINATE SETUP
------------------------------------------------------------------------------

The optimization will be done in new redundant internal coordinates
Making redundant internal coordinates   ...  (new redundants) done
Evaluating the initial hessian          ...  (Almloef) done
Evaluating the coordinates              ...  done
Calculating the B-matrix                .... done
Calculating the G-matrix                .... done
Diagonalizing the G-matrix              .... done
The first mode is                       ....   55
The number of degrees of freedom        ....   36

    -----------------------------------------------------------------
                    Redundant Internal Coordinates


    -----------------------------------------------------------------
         Definition                    Initial Value    Approx d2E/dq
    -----------------------------------------------------------------
      1. B(N   1,C   0)                  1.4846         0.395285   
      2. B(C   2,N   1)                  1.4969         0.377843   
      3. B(C   2,C   0)                  1.4706         0.464643   
      4. B(C   3,C   2)                  1.4882         0.435583   
      5. B(C   4,C   3)                  1.4632         0.477441   
      6. B(O   5,C   4)                  1.4177         0.505502   
      7. B(O   5,C   3)                  1.4027         0.534139   
      8. B(H   6,C   0)                  1.0832         0.369245   
      9. B(H   7,C   0)                  1.0823         0.370431   
     10. B(H   8,N   1)                  1.0152         0.424489   
     11. B(H   9,N   1)                  1.0144         0.425813   
     12. B(H  10,C   2)                  1.0847         0.367153   
     13. B(H  11,C   3)                  1.0916         0.358037   
     14. B(H  12,C   4)                  1.0867         0.364502   
     15. B(H  13,C   4)                  1.0856         0.365910   
     16. A(H   6,C   0,H   7)          116.2610         0.293292   
     17. A(C   2,C   0,H   7)          120.0473         0.337817   
     18. A(C   2,C   0,H   6)          119.0679         0.337637   
     19. A(N   1,C   0,C   2)           60.8633         0.378544   
     20. A(N   1,C   0,H   7)          114.1012         0.326904   
     21. A(N   1,C   0,H   6)          113.6282         0.326731   
     22. A(C   0,N   1,C   2)           59.1061         0.363031   
     23. A(H   8,N   1,H   9)          113.8289         0.301555   
     24. A(C   2,N   1,H   8)          118.0351         0.329029   
     25. A(C   0,N   1,H   9)          118.5787         0.331665   
     26. A(C   0,N   1,H   8)          118.1554         0.331494   
     27. A(C   2,N   1,H   9)          118.6337         0.329199   
     28. A(C   3,C   2,H  10)          115.6049         0.333714   
     29. A(N   1,C   2,H  10)          112.5513         0.324013   
     30. A(C   0,C   2,H  10)          117.5674         0.337317   
     31. A(N   1,C   2,C   3)          116.8738         0.371443   
     32. A(C   0,C   2,C   3)          121.7474         0.387433   
     33. A(C   0,C   2,N   1)           60.0306         0.375602   
     34. A(C   2,C   3,O   5)          112.5488         0.394463   
     35. A(C   2,C   3,C   4)          120.4337         0.389273   
     36. A(C   4,C   3,H  11)          119.7589         0.337431   
     37. A(C   2,C   3,H  11)          115.7617         0.332325   
     38. A(O   5,C   3,H  11)          115.6588         0.341725   
     39. A(C   4,C   3,O   5)           59.2511         0.400873   
     40. A(O   5,C   4,H  13)          115.3601         0.339824   
     41. A(C   3,C   4,H  13)          118.5010         0.338657   
     42. A(O   5,C   4,H  12)          115.3674         0.339606   
     43. A(C   3,C   4,H  12)          119.8931         0.338440   
     44. A(C   3,C   4,O   5)           58.2468         0.397008   
     45. A(H  12,C   4,H  13)          116.2693         0.292130   
     46. A(C   3,O   5,C   4)           62.5021         0.402331   
     47. D(H   9,N   1,C   0,H   6)    140.6410         0.014284   
     48. D(H   9,N   1,C   0,C   2)   -108.0581         0.014284   
     49. D(H   8,N   1,C   0,H   7)   -140.2330         0.014284   
     50. D(H   8,N   1,C   0,H   6)     -3.7830         0.014284   
     51. D(H   8,N   1,C   0,C   2)    107.5179         0.014284   
     52. D(H   9,N   1,C   0,H   7)      4.1909         0.014284   
     53. D(C   2,N   1,C   0,H   6)   -111.3009         0.014284   
     54. D(C   2,N   1,C   0,H   7)    112.2490         0.014284   
     55. D(H  10,C   2,C   0,N   1)    101.4411         0.017056   
     56. D(C   3,C   2,C   0,H   6)     -2.4571         0.017056   
     57. D(H  10,C   2,N   1,H   9)     -1.8498         0.013078   
     58. D(C   3,C   2,C   0,H   7)    152.5488         0.017056   
     59. D(H  10,C   2,C   0,H   6)   -156.1354         0.017056   
     60. D(C   3,C   2,C   0,N   1)   -104.8806         0.017056   
     61. D(C   3,C   2,N   1,H   9)   -139.1598         0.013078   
     62. D(C   3,C   2,N   1,H   8)      5.1542         0.013078   
     63. D(C   3,C   2,N   1,C   0)    112.8744         0.013078   
     64. D(N   1,C   2,C   0,H   6)    102.4235         0.017056   
     65. D(C   0,C   2,N   1,H   9)    107.9658         0.013078   
     66. D(C   0,C   2,N   1,H   8)   -107.7202         0.013078   
     67. D(H  10,C   2,N   1,C   0)   -109.8156         0.013078   
     68. D(H  10,C   2,N   1,H   8)    142.4642         0.013078   
     69. D(N   1,C   2,C   0,H   7)   -102.5706         0.017056   
     70. D(H  10,C   2,C   0,H   7)     -1.1295         0.017056   
     71. D(O   5,C   3,C   2,H  10)     44.0528         0.014994   
     72. D(O   5,C   3,C   2,N   1)   -179.9249         0.014994   
     73. D(O   5,C   3,C   2,C   0)   -110.1063         0.014994   
     74. D(C   4,C   3,C   2,H  10)    -22.4858         0.014994   
     75. D(C   4,C   3,C   2,N   1)    113.5366         0.014994   
     76. D(H  11,C   3,C   2,C   0)     26.0286         0.014994   
     77. D(C   4,C   3,C   2,C   0)   -176.6449         0.014994   
     78. D(H  11,C   3,C   2,H  10)   -179.8123         0.014994   
     79. D(H  11,C   3,C   2,N   1)    -43.7900         0.014994   
     80. D(H  13,C   4,C   3,H  11)     -0.1846         0.018018   
     81. D(H  13,C   4,C   3,O   5)    103.7162         0.018018   
     82. D(H  13,C   4,C   3,C   2)   -156.6123         0.018018   
     83. D(H  12,C   4,C   3,H  11)    153.0746         0.018018   
     84. D(H  12,C   4,C   3,O   5)   -103.0247         0.018018   
     85. D(H  12,C   4,C   3,C   2)     -3.3532         0.018018   
     86. D(O   5,C   4,C   3,H  11)   -103.9007         0.018018   
     87. D(O   5,C   4,C   3,C   2)     99.6715         0.018018   
     88. D(C   3,O   5,C   4,H  13)   -109.1273         0.020216   
     89. D(C   3,O   5,C   4,H  12)    110.8064         0.020216   
     90. D(C   4,O   5,C   3,H  11)    110.7899         0.022673   
     91. D(C   4,O   5,C   3,C   2)   -113.0276         0.022673   
    -----------------------------------------------------------------

Number of atoms                         .... 14
Number of degrees of freedom            .... 91

         *************************************************************
         *                GEOMETRY OPTIMIZATION CYCLE   1            *
         *************************************************************


           ************************************************************
           *        Program running with 8 parallel MPI-processes     *
           *              working on a common directory               *
           ************************************************************
           ************************************************************
           *              Shut down parallel processing               *
           ************************************************************


           ************************************************************
           *        Program running with 8 parallel MPI-processes     *
           *              working on a common directory               *
           ************************************************************
------------
SCF SETTINGS
------------
Hamiltonian:
 Density Functional     Method          .... DFT(GTOs)
 Exchange Functional    Exchange        .... PBE
   PBE kappa parameter  XKappa          ....  0.804000
 Correlation Functional Correlation     .... PBE
 LDA part of GGA corr.  LDAOpt          .... PW91-LDA
 Gradients option       PostSCFGGA      .... off
 Hybrid DFT is turned on
   Fraction HF Exchange ScalHFX         ....  0.250000
   Scaling of DF-GGA-X  ScalDFX         ....  0.750000
   Scaling of DF-GGA-C  ScalDFC         ....  1.000000
   Scaling of DF-LDA-C  ScalLDAC        ....  1.000000
   Perturbative correction              ....  0.000000
   NL short-range parameter             ....  6.900000


General Settings:
 Integral files         IntName         .... 0963_+
 Hartree-Fock type      HFTyp           .... RHF
 Total Charge           Charge          ....    1
 Multiplicity           Mult            ....    1
 Number of Electrons    NEL             ....   46
 Basis Dimension        Dim             ....  234
 Nuclear Repulsion      ENuc            ....    244.9291625295 Eh

Convergence Acceleration:
 DIIS                   CNVDIIS         .... on
   Start iteration      DIISMaxIt       ....    12
   Startup error        DIISStart       ....  0.200000
   # of expansion vecs  DIISMaxEq       ....     5
   Bias factor          DIISBfac        ....   1.050
   Max. coefficient     DIISMaxC        ....  10.000
 Newton-Raphson         CNVNR           .... off
 SOSCF                  CNVSOSCF        .... on
   Start iteration      SOSCFMaxIt      ....   150
   Startup grad/error   SOSCFStart      ....  0.003300
 Level Shifting         CNVShift        .... on
   Level shift para.    LevelShift      ....    0.2500
   Turn off err/grad.   ShiftErr        ....    0.0010
 Zerner damping         CNVZerner       .... off
 Static damping         CNVDamp         .... on
   Fraction old density DampFac         ....    0.7000
   Max. Damping (<1)    DampMax         ....    0.9800
   Min. Damping (>=0)   DampMin         ....    0.0000
   Turn off err/grad.   DampErr         ....    0.1000
 Fernandez-Rico         CNVRico         .... off

SCF Procedure:
 Maximum # iterations   MaxIter         ....   125
 SCF integral mode      SCFMode         .... Direct
   Integral package                     .... LIBINT
 Reset frequeny         DirectResetFreq ....    20
 Integral Threshold     Thresh          ....  2.500e-11 Eh
 Primitive CutOff       TCut            ....  2.500e-12 Eh

Convergence Tolerance:
 Convergence Check Mode ConvCheckMode   .... Total+1el-Energy
 Energy Change          TolE            ....  1.000e-08 Eh
 1-El. energy change                    ....  1.000e-05 Eh
 Orbital Gradient       TolG            ....  1.000e-05
 Orbital Rotation angle TolX            ....  1.000e-05
 DIIS Error             TolErr          ....  5.000e-07


Diagonalization of the overlap matrix:
Smallest eigenvalue                        ... 1.203e-04
Time for diagonalization                   ...    0.101 sec
Threshold for overlap eigenvalues          ... 1.000e-08
Number of eigenvalues below threshold      ... 0
Time for construction of square roots      ...    0.022 sec
Total time needed                          ...    0.123 sec

-------------------
DFT GRID GENERATION
-------------------

General Integration Accuracy     IntAcc      ...  4.340
Radial Grid Type                 RadialGrid  ... Gauss-Chebyshev
Angular Grid (max. acc.)         AngularGrid ... Lebedev-194
Angular grid pruning method      GridPruning ... 3 (G Style)
Weight generation scheme         WeightScheme... Becke
Basis function cutoff            BFCut       ...    1.0000e-11
Integration weight cutoff        WCut        ...    1.0000e-14
Grids for H and He will be reduced by one unit

# of grid points (after initial pruning)     ...  32028 (   0.0 sec)
# of grid points (after weights+screening)   ...  29795 (   0.1 sec)
nearest neighbour list constructed           ...    0.0 sec
Grid point re-assignment to atoms done       ...    0.0 sec
Grid point division into batches done        ...    0.0 sec
Reduced shell lists constructed in    0.1 sec

Total number of grid points                  ...    29795
Total number of batches                      ...      473
Average number of points per batch           ...       62
Average number of grid points per atom       ...     2128
Average number of shells per batch           ...    78.07 (79.66%)
Average number of basis functions per batch  ...   189.34 (80.92%)
Average number of large shells per batch     ...    66.18 (84.78%)
Average number of large basis fcns per batch ...   161.59 (85.34%)
Maximum spatial batch extension              ...   2.74,  3.55,  2.79 au
Average spatial batch extension              ...   0.15,  0.15,  0.15 au

Time for grid setup =    0.463 sec

Loading Hartree-Fock densities                     ... done
Calculating cut-offs                               ... done
Setting up the integral package                    ... done
Initializing the effective Hamiltonian             ... done
Starting the Coulomb interaction                   ... done (   0.0 sec)
Reading the grid                                   ... done
Mapping shells                                     ... done
Starting the XC term evaluation                    ... done (   0.3 sec)
  promolecular density results
     # of electrons  =     46.996051430
     EX              =    -37.579131089
     EC              =     -1.564377301
     EX+EC           =    -39.143508389
Transforming the Hamiltonian                       ... done (   0.0 sec)
Diagonalizing the Hamiltonian                      ... done (   0.1 sec)
Back transforming the eigenvectors                 ... done (   0.0 sec)
Now organizing SCF variables                       ... done
--------------
SCF ITERATIONS
--------------
ITER       Energy         Delta-E        Max-DP      RMS-DP      [F,P]     Damp
               ***  Starting incremental Fock matrix formation  ***
  0   -286.5779116902   0.000000000000 0.03286791  0.00088464  0.1506908 0.7000
  1   -286.6150795471  -0.037167856947 0.02998789  0.00071140  0.0603161 0.7000
                               ***Turning on DIIS***
  2   -286.6312593057  -0.016179758606 0.05194309  0.00130437  0.0297531 0.0000
  3   -286.6582801579  -0.027020852224 0.02568901  0.00051680  0.0322456 0.0000
  4   -286.6626623050  -0.004382147033 0.00504642  0.00012643  0.0113964 0.0000
  5   -286.6629205811  -0.000258276141 0.00202856  0.00004654  0.0036090 0.0000
                      *** Initiating the SOSCF procedure ***
                           *** Shutting down DIIS ***
                      *** Re-Reading the Fockian *** 
                      *** Removing any level shift *** 
ITER      Energy       Delta-E        Grad      Rot      Max-DP    RMS-DP
  6   -286.66295136  -0.0000307779  0.000099  0.000099  0.000908  0.000022
               *** Restarting incremental Fock matrix formation ***
  7   -286.66295241  -0.0000010509  0.000044  0.000073  0.000124  0.000003
  8   -286.66295237   0.0000000431  0.000067  0.000055  0.000071  0.000002
  9   -286.66295249  -0.0000001202  0.000005  0.000007  0.000010  0.000000
 10   -286.66295249   0.0000000002  0.000006  0.000004  0.000010  0.000000
                  ***Gradient check signals convergence***
              ***Rediagonalizing the Fockian in SOSCF/NRSCF***

               *****************************************************
               *                     SUCCESS                       *
               *           SCF CONVERGED AFTER  11 CYCLES          *
               *****************************************************

Setting up the final grid:

General Integration Accuracy     IntAcc      ...  5.010
Radial Grid Type                 RadialGrid  ... Gauss-Chebyshev
Angular Grid (max. acc.)         AngularGrid ... Lebedev-434
Angular grid pruning method      GridPruning ... 3 (G Style)
Weight generation scheme         WeightScheme... Becke
Basis function cutoff            BFCut       ...    1.0000e-11
Integration weight cutoff        WCut        ...    1.0000e-14
Grids for H and He will be reduced by one unit

# of grid points (after initial pruning)     ... 117760 (   0.0 sec)
# of grid points (after weights+screening)   ... 108420 (   0.1 sec)
nearest neighbour list constructed           ...    0.0 sec
Grid point re-assignment to atoms done       ...    0.0 sec
Grid point division into batches done        ...    0.7 sec
Reduced shell lists constructed in    0.8 sec

Total number of grid points                  ...   108420
Total number of batches                      ...     1701
Average number of points per batch           ...       63
Average number of grid points per atom       ...     7744
Average number of shells per batch           ...    78.54 (80.14%)
Average number of basis functions per batch  ...   191.28 (81.74%)
Average number of large shells per batch     ...    66.03 (84.07%)
Average number of large basis fcns per batch ...   161.99 (84.69%)
Maximum spatial batch extension              ...   2.30,  2.92,  2.53 au
Average spatial batch extension              ...   0.10,  0.10,  0.10 au

Final grid set up in    0.9 sec
Final integration                            ... done (   0.4 sec)
Change in XC energy                          ...     0.000346864
Integrated number of electrons               ...    45.999989278
Previous integrated no of electrons          ...    45.999960631
Total Energy       :         -286.66260562 Eh           -7800.48607 eV
  Last Energy change         ...   -1.7723e-09  Tolerance :   1.0000e-08
  Last MAX-Density change    ...    3.7677e-06  Tolerance :   1.0000e-07
             **** THE GBW FILE WAS UPDATED (0963_+.gbw) ****
             **** DENSITY FILE WAS UPDATED (0963_+.scfp.tmp) ****
             **** ENERGY FILE WAS UPDATED (0963_+.en.tmp) ****
Total SCF time: 0 days 0 hours 0 min 32 sec 
           ************************************************************
           *              Shut down parallel processing               *
           ************************************************************

-------------------------   --------------------
FINAL SINGLE POINT ENERGY      -286.662605624057
-------------------------   --------------------



           ************************************************************
           *        Program running with 8 parallel MPI-processes     *
           *              working on a common directory               *
           ************************************************************
------------------------------------------------------------------------------
                         ORCA SCF GRADIENT CALCULATION
------------------------------------------------------------------------------

Gradient of the Kohn-Sham DFT energy:
Kohn-Sham wavefunction type      ... RKS
Hartree-Fock exchange scaling    ...    0.250
Number of operators              ...    1
Number of atoms                  ...   14
Basis set dimensions             ...  234
Integral neglect threshold       ... 2.5e-11
Integral primitive cutoff        ... 2.5e-12

Nuclear repulsion gradient       ... done
One Electron Gradient            ... done
Pre-screening matrix             ... done
Starting the two electron gradient:
Two electron gradient done
Exchange-correlation gradient    ... done

------------------
CARTESIAN GRADIENT
------------------

   1   C   :    0.000050302    0.000134748    0.000095283
   2   N   :   -0.000065150   -0.000037977    0.000090981
   3   C   :   -0.000063224   -0.000009043   -0.000089065
   4   C   :   -0.000190520    0.000105146   -0.000041096
   5   C   :    0.000078120   -0.000175514   -0.000118716
   6   O   :    0.000167443    0.000003766    0.000135726
   7   H   :    0.000039079   -0.000098540   -0.000000316
   8   H   :    0.000012231    0.000032601   -0.000034466
   9   H   :   -0.000004839   -0.000061219   -0.000112382
  10   H   :    0.000005777    0.000012873    0.000035331
  11   H   :   -0.000009855   -0.000041912    0.000013116
  12   H   :    0.000062826   -0.000007422   -0.000008978
  13   H   :   -0.000026612    0.000138459    0.000019187
  14   H   :   -0.000055578    0.000004034    0.000015395

Norm of the cartesian gradient     ...    0.000513267
RMS gradient                       ...    0.000079199
MAX gradient                       ...    0.000190520

-------
TIMINGS
-------

Total SCF gradient time            ...       16.269 sec

One electron gradient       ....       0.054 sec  (  0.3%)
Prescreening matrices       ....       0.170 sec  (  1.0%)
Two electron gradient       ....      13.425 sec  ( 82.5%)
XC gradient                 ....       1.801 sec  ( 11.1%)
           ************************************************************
           *              Shut down parallel processing               *
           ************************************************************
------------------------------------------------------------------------------
                         ORCA GEOMETRY RELAXATION STEP
------------------------------------------------------------------------------

Reading the OPT-File                    .... done
Getting information on internals        .... done
Copying old internal coords+grads       .... done
Making the new internal coordinates     .... (new redundants).... done
Validating the new internal coordinates .... (new redundants).... done
Calculating the B-matrix                .... done
Calculating the G,G- and P matrices     .... done
Transforming gradient to internals      .... done
Projecting the internal gradient        .... done
Number of atoms                         ....  14
Number of internal coordinates          ....  91
Current Energy                          ....  -286.662605624 Eh
Current gradient norm                   ....     0.000513267 Eh/bohr
Maximum allowed component of the step   ....  0.300
Current trust radius                    ....  0.300
Evaluating the initial hessian          ....  (Almloef) done
Projecting the Hessian                  .... done
Forming the augmented Hessian           .... done
Diagonalizing the augmented Hessian     .... done
Last element of RFO vector              ....  0.999995882
Lowest eigenvalues of augmented Hessian:
 -0.000000635  0.014994011  0.035081076  0.037915278  0.041349115
Length of the computed step             ....  0.002869929
The final length of the internal step   ....  0.002869929
Converting the step to cartesian space:
 Initial RMS(Int)=    0.0003008503
Transforming coordinates:
 Iter   0:  RMS(Cart)=    0.0006532492 RMS(Int)=    0.0003008665
 Iter   1:  RMS(Cart)=    0.0000002139 RMS(Int)=    0.0000001541
 Iter   2:  RMS(Cart)=    0.0000000001 RMS(Int)=    0.0000000001
done
Storing new coordinates                 .... done

                                .--------------------.
          ----------------------|Geometry convergence|---------------------
          Item                value                 Tolerance   Converged
          -----------------------------------------------------------------
          RMS gradient        0.00003653            0.00003000      NO
          MAX gradient        0.00013868            0.00010000      NO
          RMS step            0.00030085            0.00060000      YES
          MAX step            0.00082384            0.00100000      YES
          ....................................................
          Max(Bonds)      0.0002      Max(Angles)    0.03
          Max(Dihed)        0.05      Max(Improp)    0.00
          -----------------------------------------------------------------

The optimization has not yet converged - more geometry cycles are needed


    ---------------------------------------------------------------------------
                         Redundant Internal Coordinates
                            (Angstroem and degrees)

        Definition                    Value    dE/dq     Step     New-Value
    ----------------------------------------------------------------------------
     1. B(N   1,C   0)                1.4846  0.000065 -0.0001    1.4845   
     2. B(C   2,N   1)                1.4969 -0.000020  0.0001    1.4970   
     3. B(C   2,C   0)                1.4706  0.000006  0.0000    1.4706   
     4. B(C   3,C   2)                1.4882 -0.000015  0.0000    1.4882   
     5. B(C   4,C   3)                1.4632 -0.000033  0.0000    1.4633   
     6. B(O   5,C   4)                1.4177  0.000085 -0.0001    1.4176   
     7. B(O   5,C   3)                1.4027  0.000112 -0.0001    1.4026   
     8. B(H   6,C   0)                1.0832 -0.000104  0.0001    1.0833   
     9. B(H   7,C   0)                1.0823  0.000022 -0.0000    1.0823   
    10. B(H   8,N   1)                1.0152  0.000005 -0.0000    1.0152   
    11. B(H   9,N   1)                1.0144 -0.000030  0.0000    1.0144   
    12. B(H  10,C   2)                1.0847  0.000028 -0.0000    1.0847   
    13. B(H  11,C   3)                1.0916 -0.000043  0.0001    1.0916   
    14. B(H  12,C   4)                1.0867 -0.000139  0.0002    1.0869   
    15. B(H  13,C   4)                1.0856  0.000056 -0.0001    1.0856   
    16. A(H   6,C   0,H   7)          116.26 -0.000016    0.00    116.26   
    17. A(C   2,C   0,H   7)          120.05  0.000008   -0.01    120.04   
    18. A(C   2,C   0,H   6)          119.07  0.000013    0.00    119.07   
    19. A(N   1,C   0,C   2)           60.86 -0.000024    0.01     60.87   
    20. A(N   1,C   0,H   7)          114.10 -0.000004    0.00    114.11   
    21. A(N   1,C   0,H   6)          113.63  0.000022   -0.00    113.63   
    22. A(C   0,N   1,C   2)           59.11 -0.000006    0.00     59.11   
    23. A(H   8,N   1,H   9)          113.83 -0.000037    0.01    113.84   
    24. A(C   2,N   1,H   8)          118.04  0.000048   -0.02    118.01   
    25. A(C   0,N   1,H   9)          118.58 -0.000009    0.01    118.59   
    26. A(C   0,N   1,H   8)          118.16  0.000040   -0.01    118.14   
    27. A(C   2,N   1,H   9)          118.63 -0.000015    0.01    118.64   
    28. A(C   3,C   2,H  10)          115.60 -0.000014    0.01    115.61   
    29. A(N   1,C   2,H  10)          112.55 -0.000022    0.01    112.56   
    30. A(C   0,C   2,H  10)          117.57 -0.000001   -0.01    117.56   
    31. A(N   1,C   2,C   3)          116.87  0.000030   -0.03    116.85   
    32. A(C   0,C   2,C   3)          121.75  0.000001    0.01    121.76   
    33. A(C   0,C   2,N   1)           60.03  0.000030   -0.01     60.02   
    34. A(C   2,C   3,O   5)          112.55 -0.000062    0.02    112.56   
    35. A(C   2,C   3,C   4)          120.43 -0.000075    0.02    120.45   
    36. A(C   4,C   3,H  11)          119.76  0.000045   -0.02    119.74   
    37. A(C   2,C   3,H  11)          115.76  0.000031   -0.01    115.76   
    38. A(O   5,C   3,H  11)          115.66  0.000024   -0.00    115.65   
    39. A(C   4,C   3,O   5)           59.25  0.000022   -0.00     59.25   
    40. A(O   5,C   4,H  13)          115.36  0.000005   -0.00    115.36   
    41. A(C   3,C   4,H  13)          118.50 -0.000002    0.00    118.50   
    42. A(O   5,C   4,H  12)          115.37 -0.000033    0.01    115.37   
    43. A(C   3,C   4,H  12)          119.89 -0.000016    0.00    119.90   
    44. A(C   3,C   4,O   5)           58.25  0.000037   -0.00     58.24   
    45. A(H  12,C   4,H  13)          116.27  0.000014   -0.00    116.27   
    46. A(C   3,O   5,C   4)           62.50 -0.000059    0.01     62.51   
    47. D(H   9,N   1,C   0,H   6)    140.64  0.000017   -0.02    140.62   
    48. D(H   9,N   1,C   0,C   2)   -108.06  0.000016   -0.01   -108.07   
    49. D(H   8,N   1,C   0,H   7)   -140.23  0.000043   -0.03   -140.27   
    50. D(H   8,N   1,C   0,H   6)     -3.78  0.000039   -0.03     -3.81   
    51. D(H   8,N   1,C   0,C   2)    107.52  0.000038   -0.02    107.50   
    52. D(H   9,N   1,C   0,H   7)      4.19  0.000021   -0.02      4.17   
    53. D(C   2,N   1,C   0,H   6)   -111.30  0.000001   -0.01   -111.31   
    54. D(C   2,N   1,C   0,H   7)    112.25  0.000005   -0.01    112.24   
    55. D(H  10,C   2,C   0,N   1)    101.44 -0.000014    0.01    101.46   
    56. D(C   3,C   2,C   0,H   6)     -2.46 -0.000041    0.04     -2.42   
    57. D(H  10,C   2,N   1,H   9)     -1.85 -0.000023    0.02     -1.83   
    58. D(C   3,C   2,C   0,H   7)    152.55 -0.000033    0.03    152.58   
    59. D(H  10,C   2,C   0,H   6)   -156.14 -0.000004    0.01   -156.12   
    60. D(C   3,C   2,C   0,N   1)   -104.88 -0.000052    0.04   -104.84   
    61. D(C   3,C   2,N   1,H   9)   -139.16 -0.000010    0.03   -139.13   
    62. D(C   3,C   2,N   1,H   8)      5.15 -0.000027    0.03      5.18   
    63. D(C   3,C   2,N   1,C   0)    112.87 -0.000003    0.02    112.90   
    64. D(N   1,C   2,C   0,H   6)    102.42  0.000011   -0.00    102.42   
    65. D(C   0,C   2,N   1,H   9)    107.97 -0.000007    0.00    107.97   
    66. D(C   0,C   2,N   1,H   8)   -107.72 -0.000024    0.01   -107.71   
    67. D(H  10,C   2,N   1,C   0)   -109.82 -0.000016    0.02   -109.80   
    68. D(H  10,C   2,N   1,H   8)    142.46 -0.000041    0.02    142.49   
    69. D(N   1,C   2,C   0,H   7)   -102.57  0.000020   -0.01   -102.58   
    70. D(H  10,C   2,C   0,H   7)     -1.13  0.000005    0.00     -1.13   
    71. D(O   5,C   3,C   2,H  10)     44.05 -0.000020    0.04     44.09   
    72. D(O   5,C   3,C   2,N   1)   -179.92 -0.000038    0.04   -179.89   
    73. D(O   5,C   3,C   2,C   0)   -110.11  0.000013    0.02   -110.09   
    74. D(C   4,C   3,C   2,H  10)    -22.49 -0.000003    0.03    -22.45   
    75. D(C   4,C   3,C   2,N   1)    113.54 -0.000020    0.03    113.56   
    76. D(H  11,C   3,C   2,C   0)     26.03  0.000016    0.02     26.05   
    77. D(C   4,C   3,C   2,C   0)   -176.64  0.000031    0.01   -176.64   
    78. D(H  11,C   3,C   2,H  10)   -179.81 -0.000018    0.05   -179.77   
    79. D(H  11,C   3,C   2,N   1)    -43.79 -0.000035    0.04    -43.75   
    80. D(H  13,C   4,C   3,H  11)     -0.18  0.000005   -0.01     -0.19   
    81. D(H  13,C   4,C   3,O   5)    103.72  0.000023   -0.01    103.71   
    82. D(H  13,C   4,C   3,C   2)   -156.61 -0.000006    0.00   -156.61   
    83. D(H  12,C   4,C   3,H  11)    153.07 -0.000001   -0.01    153.07   
    84. D(H  12,C   4,C   3,O   5)   -103.02  0.000017   -0.01   -103.03   
    85. D(H  12,C   4,C   3,C   2)     -3.35 -0.000013    0.01     -3.35   
    86. D(O   5,C   4,C   3,H  11)   -103.90 -0.000019   -0.00   -103.90   
    87. D(O   5,C   4,C   3,C   2)     99.67 -0.000030    0.01     99.68   
    88. D(C   3,O   5,C   4,H  13)   -109.13 -0.000005   -0.00   -109.13   
    89. D(C   3,O   5,C   4,H  12)    110.81  0.000007   -0.00    110.80   
    90. D(C   4,O   5,C   3,H  11)    110.79  0.000049   -0.02    110.77   
    91. D(C   4,O   5,C   3,C   2)   -113.03  0.000055   -0.01   -113.04   
    ----------------------------------------------------------------------------

         *************************************************************
         *                GEOMETRY OPTIMIZATION CYCLE   2            *
         *************************************************************
---------------------------------
CARTESIAN COORDINATES (ANGSTROEM)
---------------------------------
  C      0.989241    0.982013   -1.350438
  N      0.032286    0.000275   -1.919768
  C      0.492715   -0.109916   -0.499630
  C     -0.528118    0.123295    0.557866
  C     -0.948302   -0.968627    1.436659
  O     -0.000569    0.000499    1.851605
  H      0.572490    1.974639   -1.229602
  H      1.982998    0.928344   -1.775728
  H     -0.921331    0.304284   -2.089626
  H      0.373922   -0.674781   -2.595499
  H      1.148317   -0.959051   -0.339372
  H     -1.191793    0.974936    0.396957
  H     -0.554026   -1.969796    1.283209
  H     -1.920254   -0.903259    1.915700

----------------------------
CARTESIAN COORDINATES (A.U.)
----------------------------
  NO LB      ZA    FRAG    MASS        X           Y           Z
   0 C     6.0000    0    12.011          1.869394251533368          1.855735731500679         -2.551958375180425
   1 N     7.0000    0    14.007          0.061011037577705          0.000519745263094         -3.627835105859340
   2 C     6.0000    0    12.011          0.931095787963936         -0.207710224272375         -0.944164175055632
   3 C     6.0000    0    12.011         -0.997998876293133          0.232993230242653          1.054214171333179
   4 C     6.0000    0    12.011         -1.792030779038664         -1.830440505046872          2.714891490406005
   5 O     8.0000    0    15.999         -0.001075336861820          0.000943875906986          3.499026489209363
   6 H     1.0000    0     1.008          1.081850247773619          3.731526140237824         -2.323611110868802
   7 H     1.0000    0     1.008          3.747322980905891          1.754315217555797         -3.355640445489466
   8 H     1.0000    0     1.008         -1.741064165628754          0.575014240305836         -3.948820585021591
   9 H     1.0000    0     1.008          0.706609551332352         -1.275150504119779         -4.904782314799384
  10 H     1.0000    0     1.008          2.170005124562445         -1.812343198590390         -0.641319457299544
  11 H     1.0000    0     1.008         -2.252163191845511          1.842362965793145          0.750140959958447
  12 H     1.0000    0     1.008         -1.046957837511000         -3.722374919288842          2.424914031042610
  13 H     1.0000    0     1.008         -3.628754913065349         -1.706911586115012          3.620148673104000

--------------------------------
INTERNAL COORDINATES (ANGSTROEM)
--------------------------------
 C      0   0   0   0.000000     0.000     0.000
 N      1   0   0   1.484489     0.000     0.000
 C      1   2   0   1.470619    60.869     0.000
 C      3   1   2   1.488215   121.759   255.163
 C      4   3   1   1.463258   120.450   183.364
 O      4   3   1   1.402550   112.565   249.911
 H      1   2   3   1.083323   113.625   248.691
 H      1   2   3   1.082269   114.105   112.235
 H      2   1   3   1.015214   118.142   107.498
 H      2   1   3   1.014410   118.585   251.931
 H      3   1   2   1.084679   117.559   101.456
 H      4   3   1   1.091627   115.756    26.052
 H      5   4   3   1.086894   119.895   356.652
 H      5   4   3   1.085562   118.502   203.391

---------------------------
INTERNAL COORDINATES (A.U.)
---------------------------
 C      0   0   0   0.000000     0.000     0.000
 N      1   0   0   2.805278     0.000     0.000
 C      1   2   0   2.779067    60.869     0.000
 C      3   1   2   2.812320   121.759   255.163
 C      4   3   1   2.765157   120.450   183.364
 O      4   3   1   2.650436   112.565   249.911
 H      1   2   3   2.047183   113.625   248.691
 H      1   2   3   2.045191   114.105   112.235
 H      2   1   3   1.918476   118.142   107.498
 H      2   1   3   1.916958   118.585   251.931
 H      3   1   2   2.049746   117.559   101.456
 H      4   3   1   2.062877   115.756    26.052
 H      5   4   3   2.053932   119.895   356.652
 H      5   4   3   2.051415   118.502   203.391



           ************************************************************
           *        Program running with 8 parallel MPI-processes     *
           *              working on a common directory               *
           ************************************************************
           ************************************************************
           *              Shut down parallel processing               *
           ************************************************************


           ************************************************************
           *        Program running with 8 parallel MPI-processes     *
           *              working on a common directory               *
           ************************************************************

Diagonalization of the overlap matrix:
Smallest eigenvalue                        ... 1.204e-04
Time for diagonalization                   ...    0.515 sec
Threshold for overlap eigenvalues          ... 1.000e-08
Number of eigenvalues below threshold      ... 0
Time for construction of square roots      ...    0.052 sec
Total time needed                          ...    0.567 sec

-------------------
DFT GRID GENERATION
-------------------

General Integration Accuracy     IntAcc      ...  4.340
Radial Grid Type                 RadialGrid  ... Gauss-Chebyshev
Angular Grid (max. acc.)         AngularGrid ... Lebedev-194
Angular grid pruning method      GridPruning ... 3 (G Style)
Weight generation scheme         WeightScheme... Becke
Basis function cutoff            BFCut       ...    1.0000e-11
Integration weight cutoff        WCut        ...    1.0000e-14
Grids for H and He will be reduced by one unit

# of grid points (after initial pruning)     ...  32028 (   0.0 sec)
# of grid points (after weights+screening)   ...  29794 (   0.0 sec)
nearest neighbour list constructed           ...    0.0 sec
Grid point re-assignment to atoms done       ...    0.0 sec
Grid point division into batches done        ...    0.0 sec
Reduced shell lists constructed in    0.1 sec

Total number of grid points                  ...    29794
Total number of batches                      ...      473
Average number of points per batch           ...       62
Average number of grid points per atom       ...     2128
Average number of shells per batch           ...    78.25 (79.84%)
Average number of basis functions per batch  ...   189.89 (81.15%)
Average number of large shells per batch     ...    66.28 (84.71%)
Average number of large basis fcns per batch ...   161.75 (85.19%)
Maximum spatial batch extension              ...   2.74,  3.55,  2.79 au
Average spatial batch extension              ...   0.15,  0.15,  0.15 au

Time for grid setup =    0.130 sec

--------------
SCF ITERATIONS
--------------
ITER       Energy         Delta-E        Max-DP      RMS-DP      [F,P]     Damp
               ***  Starting incremental Fock matrix formation  ***
                      *** Initiating the SOSCF procedure ***
                      *** Re-Reading the Fockian *** 
                      *** Removing any level shift *** 
ITER      Energy       Delta-E        Grad      Rot      Max-DP    RMS-DP
  0   -286.66295242 -286.6629524230  0.000071  0.000071  0.000115  0.000004
               *** Restarting incremental Fock matrix formation ***
  1   -286.66295294  -0.0000005214  0.000025  0.000049  0.000046  0.000002
  2   -286.66295300  -0.0000000520  0.000004  0.000010  0.000011  0.000000
  3   -286.66295300  -0.0000000002  0.000004  0.000004  0.000008  0.000000
                  ***Gradient check signals convergence***
              ***Rediagonalizing the Fockian in SOSCF/NRSCF***

               *****************************************************
               *                     SUCCESS                       *
               *           SCF CONVERGED AFTER   4 CYCLES          *
               *****************************************************

Setting up the final grid:

General Integration Accuracy     IntAcc      ...  5.010
Radial Grid Type                 RadialGrid  ... Gauss-Chebyshev
Angular Grid (max. acc.)         AngularGrid ... Lebedev-434
Angular grid pruning method      GridPruning ... 3 (G Style)
Weight generation scheme         WeightScheme... Becke
Basis function cutoff            BFCut       ...    1.0000e-11
Integration weight cutoff        WCut        ...    1.0000e-14
Grids for H and He will be reduced by one unit

# of grid points (after initial pruning)     ... 117760 (   0.0 sec)
# of grid points (after weights+screening)   ... 108419 (   0.1 sec)
nearest neighbour list constructed           ...    0.0 sec
Grid point re-assignment to atoms done       ...    0.0 sec
Grid point division into batches done        ...    0.7 sec
Reduced shell lists constructed in    0.9 sec

Total number of grid points                  ...   108419
Total number of batches                      ...     1701
Average number of points per batch           ...       63
Average number of grid points per atom       ...     7744
Average number of shells per batch           ...    78.54 (80.14%)
Average number of basis functions per batch  ...   191.31 (81.76%)
Average number of large shells per batch     ...    66.03 (84.08%)
Average number of large basis fcns per batch ...   161.89 (84.62%)
Maximum spatial batch extension              ...   2.30,  2.76,  2.53 au
Average spatial batch extension              ...   0.10,  0.10,  0.10 au

Final grid set up in    0.9 sec
Final integration                            ... done (   0.4 sec)
Change in XC energy                          ...     0.000346933
Integrated number of electrons               ...    45.999989190
Previous integrated no of electrons          ...    45.999960669
Total Energy       :         -286.66260607 Eh           -7800.48608 eV
  Last Energy change         ...   -2.2840e-09  Tolerance :   1.0000e-08
  Last MAX-Density change    ...    2.5523e-06  Tolerance :   1.0000e-07
             **** THE GBW FILE WAS UPDATED (0963_+.gbw) ****
             **** DENSITY FILE WAS UPDATED (0963_+.scfp.tmp) ****
             **** ENERGY FILE WAS UPDATED (0963_+.en.tmp) ****
Total SCF time: 0 days 0 hours 0 min 15 sec 
           ************************************************************
           *              Shut down parallel processing               *
           ************************************************************

-------------------------   --------------------
FINAL SINGLE POINT ENERGY      -286.662606065495
-------------------------   --------------------



           ************************************************************
           *        Program running with 8 parallel MPI-processes     *
           *              working on a common directory               *
           ************************************************************
------------------------------------------------------------------------------
                         ORCA SCF GRADIENT CALCULATION
------------------------------------------------------------------------------

Gradient of the Kohn-Sham DFT energy:
Kohn-Sham wavefunction type      ... RKS
Hartree-Fock exchange scaling    ...    0.250
Number of operators              ...    1
Number of atoms                  ...   14
Basis set dimensions             ...  234
Integral neglect threshold       ... 2.5e-11
Integral primitive cutoff        ... 2.5e-12

Nuclear repulsion gradient       ... done
One Electron Gradient            ... done
Pre-screening matrix             ... done
Starting the two electron gradient:
Two electron gradient done
Exchange-correlation gradient    ... done

------------------
CARTESIAN GRADIENT
------------------

   1   C   :    0.000098910   -0.000011048    0.000029376
   2   N   :   -0.000086803    0.000031881    0.000102534
   3   C   :   -0.000003593   -0.000011069   -0.000064105
   4   C   :   -0.000139126    0.000053204   -0.000015468
   5   C   :   -0.000010265   -0.000032987   -0.000045383
   6   O   :    0.000102297   -0.000010985    0.000067316
   7   H   :   -0.000010967   -0.000009268    0.000006909
   8   H   :   -0.000005454    0.000026346   -0.000020114
   9   H   :   -0.000001185   -0.000044930   -0.000090168
  10   H   :    0.000025089   -0.000007068    0.000015221
  11   H   :   -0.000015659   -0.000008550    0.000018661
  12   H   :    0.000034739    0.000008141   -0.000004514
  13   H   :    0.000012632    0.000013128   -0.000001454
  14   H   :   -0.000000615    0.000003207    0.000001189

Norm of the cartesian gradient     ...    0.000299372
RMS gradient                       ...    0.000046194
MAX gradient                       ...    0.000139126

-------
TIMINGS
-------

Total SCF gradient time            ...       15.553 sec

One electron gradient       ....       0.054 sec  (  0.3%)
Prescreening matrices       ....       0.162 sec  (  1.0%)
Two electron gradient       ....      13.355 sec  ( 85.9%)
XC gradient                 ....       1.769 sec  ( 11.4%)
           ************************************************************
           *              Shut down parallel processing               *
           ************************************************************
------------------------------------------------------------------------------
                         ORCA GEOMETRY RELAXATION STEP
------------------------------------------------------------------------------

Reading the OPT-File                    .... done
Getting information on internals        .... done
Copying old internal coords+grads       .... done
Making the new internal coordinates     .... (new redundants).... done
Validating the new internal coordinates .... (new redundants).... done
Calculating the B-matrix                .... done
Calculating the G,G- and P matrices     .... done
Transforming gradient to internals      .... done
Projecting the internal gradient        .... done
Number of atoms                         ....  14
Number of internal coordinates          ....  91
Current Energy                          ....  -286.662606065 Eh
Current gradient norm                   ....     0.000299372 Eh/bohr
Maximum allowed component of the step   ....  0.300
Current trust radius                    ....  0.300
Updating the Hessian (BFGS)             .... done
Forming the augmented Hessian           .... done
Diagonalizing the augmented Hessian     .... done
Last element of RFO vector              ....  0.999979934
Lowest eigenvalues of augmented Hessian:
 -0.000000792  0.011647035  0.031945996  0.035442838  0.038945006
Length of the computed step             ....  0.006335149
The final length of the internal step   ....  0.006335149
Converting the step to cartesian space:
 Initial RMS(Int)=    0.0006641040
Transforming coordinates:
 Iter   0:  RMS(Cart)=    0.0014485458 RMS(Int)=    0.0006641514
 Iter   1:  RMS(Cart)=    0.0000011030 RMS(Int)=    0.0000007844
 Iter   2:  RMS(Cart)=    0.0000000016 RMS(Int)=    0.0000000009
done
Storing new coordinates                 .... done

                                .--------------------.
          ----------------------|Geometry convergence|---------------------
          Item                value                 Tolerance   Converged
          -----------------------------------------------------------------
          Energy change      -0.00000044            0.00000100      YES
          RMS gradient        0.00002023            0.00003000      YES
          MAX gradient        0.00005895            0.00010000      YES
          RMS step            0.00066410            0.00060000      NO
          MAX step            0.00207375            0.00100000      NO
          ....................................................
          Max(Bonds)      0.0002      Max(Angles)    0.05
          Max(Dihed)        0.12      Max(Improp)    0.00
          -----------------------------------------------------------------

       The energies and gradients are converged
       and the convergence on bond distances, angles, dihedrals and impropers
       is acceptable.
       Convergence will therefore be signaled now


                    ***********************HURRAY********************
                    ***        THE OPTIMIZATION HAS CONVERGED     ***
                    *************************************************


    ---------------------------------------------------------------------------
                         Redundant Internal Coordinates

                          --- Optimized Parameters ---  
                            (Angstroem and degrees)

        Definition                    OldVal   dE/dq     Step     FinalVal
    ----------------------------------------------------------------------------
     1. B(N   1,C   0)                1.4845  0.000025 -0.0002    1.4843   
     2. B(C   2,N   1)                1.4970 -0.000013  0.0001    1.4971   
     3. B(C   2,C   0)                1.4706  0.000003  0.0000    1.4706   
     4. B(C   3,C   2)                1.4882  0.000004 -0.0000    1.4882   
     5. B(C   4,C   3)                1.4633 -0.000019  0.0001    1.4633   
     6. B(O   5,C   4)                1.4176  0.000047 -0.0001    1.4175   
     7. B(O   5,C   3)                1.4026  0.000059 -0.0002    1.4023   
     8. B(H   6,C   0)                1.0833 -0.000002  0.0001    1.0834   
     9. B(H   7,C   0)                1.0823  0.000001 -0.0000    1.0823   
    10. B(H   8,N   1)                1.0152  0.000003 -0.0000    1.0152   
    11. B(H   9,N   1)                1.0144  0.000003  0.0000    1.0144   
    12. B(H  10,C   2)                1.0847 -0.000000 -0.0000    1.0847   
    13. B(H  11,C   3)                1.0916 -0.000014  0.0001    1.0917   
    14. B(H  12,C   4)                1.0869 -0.000006  0.0001    1.0870   
    15. B(H  13,C   4)                1.0856  0.000000 -0.0000    1.0855   
    16. A(H   6,C   0,H   7)          116.26 -0.000007    0.00    116.27   
    17. A(C   2,C   0,H   7)          120.04  0.000006   -0.03    120.01   
    18. A(C   2,C   0,H   6)          119.07  0.000005    0.01    119.08   
    19. A(N   1,C   0,C   2)           60.87 -0.000012    0.01     60.88   
    20. A(N   1,C   0,H   7)          114.11  0.000000    0.01    114.11   
    21. A(N   1,C   0,H   6)          113.63  0.000005    0.00    113.63   
    22. A(C   0,N   1,C   2)           59.11 -0.000001    0.00     59.11   
    23. A(H   8,N   1,H   9)          113.84 -0.000023    0.02    113.86   
    24. A(C   2,N   1,H   8)          118.01  0.000040   -0.05    117.96   
    25. A(C   0,N   1,H   9)          118.59 -0.000018    0.02    118.61   
    26. A(C   0,N   1,H   8)          118.14  0.000036   -0.03    118.11   
    27. A(C   2,N   1,H   9)          118.64 -0.000018    0.03    118.67   
    28. A(C   3,C   2,H  10)          115.61 -0.000020    0.02    115.63   
    29. A(N   1,C   2,H  10)          112.56 -0.000007    0.02    112.58   
    30. A(C   0,C   2,H  10)          117.56 -0.000002   -0.01    117.55   
    31. A(N   1,C   2,C   3)          116.85  0.000022   -0.05    116.79   
    32. A(C   0,C   2,C   3)          121.76  0.000014    0.01    121.77   
    33. A(C   0,C   2,N   1)           60.02  0.000013   -0.01     60.01   
    34. A(C   2,C   3,O   5)          112.56 -0.000048    0.04    112.61   
    35. A(C   2,C   3,C   4)          120.45 -0.000053    0.03    120.48   
    36. A(C   4,C   3,H  11)          119.74  0.000029   -0.03    119.71   
    37. A(C   2,C   3,H  11)          115.76  0.000026   -0.01    115.74   
    38. A(O   5,C   3,H  11)          115.65  0.000017   -0.01    115.65   
    39. A(C   4,C   3,O   5)           59.25  0.000013   -0.00     59.25   
    40. A(O   5,C   4,H  13)          115.36  0.000005   -0.00    115.35   
    41. A(C   3,C   4,H  13)          118.50  0.000001   -0.00    118.50   
    42. A(O   5,C   4,H  12)          115.37 -0.000023    0.01    115.39   
    43. A(C   3,C   4,H  12)          119.90 -0.000012    0.00    119.90   
    44. A(C   3,C   4,O   5)           58.24  0.000020   -0.01     58.23   
    45. A(H  12,C   4,H  13)          116.27  0.000010   -0.00    116.26   
    46. A(C   3,O   5,C   4)           62.51 -0.000033    0.01     62.52   
    47. D(H   9,N   1,C   0,H   6)    140.62  0.000014   -0.04    140.58   
    48. D(H   9,N   1,C   0,C   2)   -108.07  0.000014   -0.03   -108.09   
    49. D(H   8,N   1,C   0,H   7)   -140.27  0.000036   -0.08   -140.35   
    50. D(H   8,N   1,C   0,H   6)     -3.81  0.000031   -0.07     -3.88   
    51. D(H   8,N   1,C   0,C   2)    107.50  0.000032   -0.05    107.45   
    52. D(H   9,N   1,C   0,H   7)      4.17  0.000018   -0.06      4.11   
    53. D(C   2,N   1,C   0,H   6)   -111.31 -0.000001   -0.02   -111.33   
    54. D(C   2,N   1,C   0,H   7)    112.24  0.000004   -0.03    112.20   
    55. D(H  10,C   2,C   0,N   1)    101.46 -0.000002    0.02    101.48   
    56. D(C   3,C   2,C   0,H   6)     -2.42 -0.000029    0.08     -2.34   
    57. D(H  10,C   2,N   1,H   9)     -1.83 -0.000018    0.04     -1.79   
    58. D(C   3,C   2,C   0,H   7)    152.58 -0.000021    0.05    152.63   
    59. D(H  10,C   2,C   0,H   6)   -156.12 -0.000003    0.02   -156.10   
    60. D(C   3,C   2,C   0,N   1)   -104.84 -0.000028    0.08   -104.76   
    61. D(C   3,C   2,N   1,H   9)   -139.13 -0.000003    0.05   -139.09   
    62. D(C   3,C   2,N   1,H   8)      5.18 -0.000013    0.05      5.23   
    63. D(C   3,C   2,N   1,C   0)    112.90  0.000012    0.03    112.93   
    64. D(N   1,C   2,C   0,H   6)    102.42 -0.000001    0.00    102.42   
    65. D(C   0,C   2,N   1,H   9)    107.97 -0.000015    0.01    107.98   
    66. D(C   0,C   2,N   1,H   8)   -107.71 -0.000025    0.01   -107.70   
    67. D(H  10,C   2,N   1,C   0)   -109.80 -0.000004    0.03   -109.77   
    68. D(H  10,C   2,N   1,H   8)    142.49 -0.000029    0.04    142.53   
    69. D(N   1,C   2,C   0,H   7)   -102.58  0.000008   -0.02   -102.61   
    70. D(H  10,C   2,C   0,H   7)     -1.13  0.000005   -0.00     -1.13   
    71. D(O   5,C   3,C   2,H  10)     44.09 -0.000017    0.10     44.19   
    72. D(O   5,C   3,C   2,N   1)   -179.89 -0.000027    0.09   -179.80   
    73. D(O   5,C   3,C   2,C   0)   -110.09  0.000003    0.05   -110.04   
    74. D(C   4,C   3,C   2,H  10)    -22.45 -0.000000    0.08    -22.38   
    75. D(C   4,C   3,C   2,N   1)    113.56 -0.000010    0.07    113.63   
    76. D(H  11,C   3,C   2,C   0)     26.05  0.000005    0.07     26.13   
    77. D(C   4,C   3,C   2,C   0)   -176.64  0.000021    0.03   -176.61   
    78. D(H  11,C   3,C   2,H  10)   -179.77 -0.000016    0.12   -179.65   
    79. D(H  11,C   3,C   2,N   1)    -43.75 -0.000025    0.11    -43.64   
    80. D(H  13,C   4,C   3,H  11)     -0.19 -0.000000   -0.01     -0.20   
    81. D(H  13,C   4,C   3,O   5)    103.71  0.000014   -0.01    103.70   
    82. D(H  13,C   4,C   3,C   2)   -156.61 -0.000014    0.03   -156.58   
    83. D(H  12,C   4,C   3,H  11)    153.07  0.000000   -0.01    153.05   
    84. D(H  12,C   4,C   3,O   5)   -103.03  0.000014   -0.01   -103.04   
    85. D(H  12,C   4,C   3,C   2)     -3.35 -0.000014    0.03     -3.32   
    86. D(O   5,C   4,C   3,H  11)   -103.90 -0.000014   -0.00   -103.91   
    87. D(O   5,C   4,C   3,C   2)     99.68 -0.000028    0.04     99.72   
    88. D(C   3,O   5,C   4,H  13)   -109.13 -0.000005    0.00   -109.13   
    89. D(C   3,O   5,C   4,H  12)    110.80  0.000002   -0.00    110.80   
    90. D(C   4,O   5,C   3,H  11)    110.77  0.000031   -0.03    110.74   
    91. D(C   4,O   5,C   3,C   2)   -113.04  0.000037   -0.02   -113.06   
    ----------------------------------------------------------------------------
                 *******************************************************
                 *** FINAL ENERGY EVALUATION AT THE STATIONARY POINT ***
                 ***               (AFTER    2 CYCLES)               ***
                 *******************************************************


           ************************************************************
           *        Program running with 8 parallel MPI-processes     *
           *              working on a common directory               *
           ************************************************************
           ************************************************************
           *              Shut down parallel processing               *
           ************************************************************


           ************************************************************
           *        Program running with 8 parallel MPI-processes     *
           *              working on a common directory               *
           ************************************************************
------------
SCF SETTINGS
------------
Hamiltonian:
 Density Functional     Method          .... DFT(GTOs)
 Exchange Functional    Exchange        .... PBE
   PBE kappa parameter  XKappa          ....  0.804000
 Correlation Functional Correlation     .... PBE
 LDA part of GGA corr.  LDAOpt          .... PW91-LDA
 Gradients option       PostSCFGGA      .... off
 Hybrid DFT is turned on
   Fraction HF Exchange ScalHFX         ....  0.250000
   Scaling of DF-GGA-X  ScalDFX         ....  0.750000
   Scaling of DF-GGA-C  ScalDFC         ....  1.000000
   Scaling of DF-LDA-C  ScalLDAC        ....  1.000000
   Perturbative correction              ....  0.000000
   NL short-range parameter             ....  6.900000


General Settings:
 Integral files         IntName         .... 0963_+
 Hartree-Fock type      HFTyp           .... RHF
 Total Charge           Charge          ....    1
 Multiplicity           Mult            ....    1
 Number of Electrons    NEL             ....   46
 Basis Dimension        Dim             ....  234
 Nuclear Repulsion      ENuc            ....    244.9312842732 Eh

Convergence Acceleration:
 DIIS                   CNVDIIS         .... on
   Start iteration      DIISMaxIt       ....    12
   Startup error        DIISStart       ....  0.200000
   # of expansion vecs  DIISMaxEq       ....     5
   Bias factor          DIISBfac        ....   1.050
   Max. coefficient     DIISMaxC        ....  10.000
 Newton-Raphson         CNVNR           .... off
 SOSCF                  CNVSOSCF        .... on
   Start iteration      SOSCFMaxIt      ....   150
   Startup grad/error   SOSCFStart      ....  0.003300
 Level Shifting         CNVShift        .... on
   Level shift para.    LevelShift      ....    0.2500
   Turn off err/grad.   ShiftErr        ....    0.0010
 Zerner damping         CNVZerner       .... off
 Static damping         CNVDamp         .... on
   Fraction old density DampFac         ....    0.7000
   Max. Damping (<1)    DampMax         ....    0.9800
   Min. Damping (>=0)   DampMin         ....    0.0000
   Turn off err/grad.   DampErr         ....    0.1000
 Fernandez-Rico         CNVRico         .... off

SCF Procedure:
 Maximum # iterations   MaxIter         ....   125
 SCF integral mode      SCFMode         .... Direct
   Integral package                     .... LIBINT
 Reset frequeny         DirectResetFreq ....    20
 Integral Threshold     Thresh          ....  2.500e-11 Eh
 Primitive CutOff       TCut            ....  2.500e-12 Eh

Convergence Tolerance:
 Convergence Check Mode ConvCheckMode   .... Total+1el-Energy
 Energy Change          TolE            ....  1.000e-08 Eh
 1-El. energy change                    ....  1.000e-05 Eh
 Orbital Gradient       TolG            ....  1.000e-05
 Orbital Rotation angle TolX            ....  1.000e-05
 DIIS Error             TolErr          ....  5.000e-07


Diagonalization of the overlap matrix:
Smallest eigenvalue                        ... 1.204e-04
Time for diagonalization                   ...    0.545 sec
Threshold for overlap eigenvalues          ... 1.000e-08
Number of eigenvalues below threshold      ... 0
Time for construction of square roots      ...    0.030 sec
Total time needed                          ...    0.575 sec

-------------------
DFT GRID GENERATION
-------------------

General Integration Accuracy     IntAcc      ...  4.340
Radial Grid Type                 RadialGrid  ... Gauss-Chebyshev
Angular Grid (max. acc.)         AngularGrid ... Lebedev-194
Angular grid pruning method      GridPruning ... 3 (G Style)
Weight generation scheme         WeightScheme... Becke
Basis function cutoff            BFCut       ...    1.0000e-11
Integration weight cutoff        WCut        ...    1.0000e-14
Grids for H and He will be reduced by one unit

# of grid points (after initial pruning)     ...  32028 (   0.0 sec)
# of grid points (after weights+screening)   ...  29793 (   0.0 sec)
nearest neighbour list constructed           ...    0.0 sec
Grid point re-assignment to atoms done       ...    0.0 sec
Grid point division into batches done        ...    0.0 sec
Reduced shell lists constructed in    0.1 sec

Total number of grid points                  ...    29793
Total number of batches                      ...      473
Average number of points per batch           ...       62
Average number of grid points per atom       ...     2128
Average number of shells per batch           ...    78.15 (79.74%)
Average number of basis functions per batch  ...   189.52 (80.99%)
Average number of large shells per batch     ...    66.20 (84.71%)
Average number of large basis fcns per batch ...   161.57 (85.25%)
Maximum spatial batch extension              ...   2.74,  3.55,  2.79 au
Average spatial batch extension              ...   0.15,  0.15,  0.15 au

Time for grid setup =    0.128 sec

--------------
SCF ITERATIONS
--------------
ITER       Energy         Delta-E        Max-DP      RMS-DP      [F,P]     Damp
               ***  Starting incremental Fock matrix formation  ***
                      *** Initiating the SOSCF procedure ***
                      *** Re-Reading the Fockian *** 
                      *** Removing any level shift *** 
ITER      Energy       Delta-E        Grad      Rot      Max-DP    RMS-DP
  0   -286.66295056 -286.6629505565  0.000163  0.000163  0.000223  0.000008
               *** Restarting incremental Fock matrix formation ***
  1   -286.66295314  -0.0000025854  0.000056  0.000111  0.000107  0.000004
  2   -286.66295340  -0.0000002616  0.000011  0.000030  0.000042  0.000001
  3   -286.66295340   0.0000000049  0.000020  0.000013  0.000028  0.000001
                  ***Gradient check signals convergence***
              ***Rediagonalizing the Fockian in SOSCF/NRSCF***

               *****************************************************
               *                     SUCCESS                       *
               *           SCF CONVERGED AFTER   4 CYCLES          *
               *****************************************************

Setting up the final grid:

General Integration Accuracy     IntAcc      ...  5.010
Radial Grid Type                 RadialGrid  ... Gauss-Chebyshev
Angular Grid (max. acc.)         AngularGrid ... Lebedev-434
Angular grid pruning method      GridPruning ... 3 (G Style)
Weight generation scheme         WeightScheme... Becke
Basis function cutoff            BFCut       ...    1.0000e-11
Integration weight cutoff        WCut        ...    1.0000e-14
Grids for H and He will be reduced by one unit

# of grid points (after initial pruning)     ... 117760 (   0.0 sec)
# of grid points (after weights+screening)   ... 108419 (   0.1 sec)
nearest neighbour list constructed           ...    0.0 sec
Grid point re-assignment to atoms done       ...    0.0 sec
Grid point division into batches done        ...    0.7 sec
Reduced shell lists constructed in    0.9 sec

Total number of grid points                  ...   108419
Total number of batches                      ...     1701
Average number of points per batch           ...       63
Average number of grid points per atom       ...     7744
Average number of shells per batch           ...    78.54 (80.14%)
Average number of basis functions per batch  ...   191.36 (81.78%)
Average number of large shells per batch     ...    65.99 (84.02%)
Average number of large basis fcns per batch ...   161.83 (84.57%)
Maximum spatial batch extension              ...   2.30,  2.77,  2.53 au
Average spatial batch extension              ...   0.10,  0.10,  0.10 au

Final grid set up in    0.9 sec
Final integration                            ... done (   0.4 sec)
Change in XC energy                          ...     0.000346986
Integrated number of electrons               ...    45.999989035
Previous integrated no of electrons          ...    45.999960520
Total Energy       :         -286.66260642 Eh           -7800.48609 eV
  Last Energy change         ...   -1.2744e-08  Tolerance :   1.0000e-08
  Last MAX-Density change    ...    3.4957e-06  Tolerance :   1.0000e-07
             **** THE GBW FILE WAS UPDATED (0963_+.gbw) ****
             **** DENSITY FILE WAS UPDATED (0963_+.scfp.tmp) ****
             **** ENERGY FILE WAS UPDATED (0963_+.en.tmp) ****
Total SCF time: 0 days 0 hours 0 min 14 sec 
           ************************************************************
           *              Shut down parallel processing               *
           ************************************************************

-------------------------   --------------------
FINAL SINGLE POINT ENERGY      -286.662606424963
-------------------------   --------------------

                                *** OPTIMIZATION RUN DONE ***

                            ***************************************
                            *     ORCA property calculations      *
                            ***************************************

                                    ---------------------
                                    Active property flags
                                    ---------------------




           ************************************************************
           *        Program running with 8 parallel MPI-processes     *
           *              working on a common directory               *
           ************************************************************

-------------------------------------------------------------------------------
                               ORCA SCF HESSIAN
-------------------------------------------------------------------------------

Hessian of the Kohn-Sham DFT energy:
Kohn-Sham wavefunction type                      ... RKS
Hartree-Fock exchange scaling                    ...    0.250
Number of operators                              ...    1
Number of atoms                                  ...   14
Basis set dimensions                             ...  234
Integral neglect threshold                       ... 2.5e-11
Integral primitive cutoff                        ... 2.5e-12

Setting up DFT Hessian calculations              ... 
Electron density on the grid                     ... found on disk
Electron density on the final grid               ... found on disk
Building xc-kernel on the grid                   ... done   (      0.0 sec)
Building xc-kernel on the final grid             ... done   (      0.0 sec)
                                                     done   (      0.2 sec)

Nuclear repulsion Hessian                        ... done   (      0.0 sec)

----------------------------------------------
Forming right-hand sides of CP-SCF equations     ...
----------------------------------------------
One electron integral derivatives                ... done   (      0.2 sec)
Transforming the overlap derivative matrices     ... done   (      0.0 sec)
Making the Q(x) pseudodensities                  ... done   (      0.0 sec)
Adding the E*S(x)*S(y) terms to the Hessian      ... done   (      0.0 sec)
Calculating energy weighted overlap derivatives  ... done   (      0.0 sec)
Two electron integral derivatives                ... done   (     19.8 sec)
Exchange-correlation integral derivatives        ... done   (     25.7 sec)
tr(F(y)Q(x)) contribution to the Hessian         ... done   (      0.0 sec)
Response fock operator R(S(x))                   ... done   (     59.0 sec)
XC Response fock operator R(S(x))                ... done   (      9.6 sec)
tr(F(y)S(x)) contribution to the Hessian         ... done   (      0.0 sec)
Transforming and finalizing RHSs                 ... done   (      0.0 sec)

----------------------------------------------
Solving the CP-SCF equations                     ...
----------------------------------------------
     CP-SCF ITERATION   0: 
     CP-SCF ITERATION   1:      0.000812568
     CP-SCF ITERATION   2:      0.000098991
     CP-SCF ITERATION   3:      0.000007895
     CP-SCF ITERATION   4:      0.000001076
     CP-SCF ITERATION   5:      0.000000057
     CP-SCF ITERATION   6:      0.000000005

                                                 ... done   (    528.6 sec)
Forming perturbed density Hessian contributions  ... done   (      0.0 sec)
Making the perturbed densities                   ... done   (      0.0 sec)
2nd integral derivative contribs                 ... done   (    109.6 sec)
Exchange-correlation Hessian                     ... done   (     13.5 sec)
Dipol derivatives                                ... done   (      2.2 sec)

Total SCF Hessian time: 0 days 0 hours 12 min 49 sec 

Writing the Hessian file to the disk             ... done

           ************************************************************
           *              Shut down parallel processing               *
           ************************************************************

-----------------------
VIBRATIONAL FREQUENCIES
-----------------------

   0:         0.00 cm**-1
   1:         0.00 cm**-1
   2:         0.00 cm**-1
   3:         0.00 cm**-1
   4:         0.00 cm**-1
   5:         0.00 cm**-1
   6:        73.78 cm**-1
   7:       216.43 cm**-1
   8:       253.81 cm**-1
   9:       390.72 cm**-1
  10:       495.99 cm**-1
  11:       781.55 cm**-1
  12:       820.45 cm**-1
  13:       870.52 cm**-1
  14:       884.97 cm**-1
  15:       913.78 cm**-1
  16:       938.92 cm**-1
  17:       977.15 cm**-1
  18:      1007.66 cm**-1
  19:      1032.06 cm**-1
  20:      1105.08 cm**-1
  21:      1154.38 cm**-1
  22:      1167.28 cm**-1
  23:      1175.76 cm**-1
  24:      1181.69 cm**-1
  25:      1224.79 cm**-1
  26:      1250.11 cm**-1
  27:      1264.69 cm**-1
  28:      1302.61 cm**-1
  29:      1359.83 cm**-1
  30:      1476.84 cm**-1
  31:      1498.56 cm**-1
  32:      1532.37 cm**-1
  33:      1633.70 cm**-1
  34:      3106.57 cm**-1
  35:      3121.82 cm**-1
  36:      3170.10 cm**-1
  37:      3203.37 cm**-1
  38:      3222.35 cm**-1
  39:      3273.91 cm**-1
  40:      3508.07 cm**-1
  41:      3610.81 cm**-1


------------
NORMAL MODES
------------

These modes are the cartesian displacements weighted by the diagonal matrix
M(i,i)=1/sqrt(m[i]) where m[i] is the mass of the displaced atom
Thus, these vectors are normalized but *not* orthogonal

                  0          1          2          3          4          5    
      0       0.000000   0.000000   0.000000   0.000000   0.000000   0.000000
      1       0.000000   0.000000   0.000000   0.000000   0.000000   0.000000
      2       0.000000   0.000000   0.000000   0.000000   0.000000   0.000000
      3       0.000000   0.000000   0.000000   0.000000   0.000000   0.000000
      4       0.000000   0.000000   0.000000   0.000000   0.000000   0.000000
      5       0.000000   0.000000   0.000000   0.000000   0.000000   0.000000
      6       0.000000   0.000000   0.000000   0.000000   0.000000   0.000000
      7       0.000000   0.000000   0.000000   0.000000   0.000000   0.000000
      8       0.000000   0.000000   0.000000   0.000000   0.000000   0.000000
      9       0.000000   0.000000   0.000000   0.000000   0.000000   0.000000
     10       0.000000   0.000000   0.000000   0.000000   0.000000   0.000000
     11       0.000000   0.000000   0.000000   0.000000   0.000000   0.000000
     12       0.000000   0.000000   0.000000   0.000000   0.000000   0.000000
     13       0.000000   0.000000   0.000000   0.000000   0.000000   0.000000
     14       0.000000   0.000000   0.000000   0.000000   0.000000   0.000000
     15       0.000000   0.000000   0.000000   0.000000   0.000000   0.000000
     16       0.000000   0.000000   0.000000   0.000000   0.000000   0.000000
     17       0.000000   0.000000   0.000000   0.000000   0.000000   0.000000
     18       0.000000   0.000000   0.000000   0.000000   0.000000   0.000000
     19       0.000000   0.000000   0.000000   0.000000   0.000000   0.000000
     20       0.000000   0.000000   0.000000   0.000000   0.000000   0.000000
     21       0.000000   0.000000   0.000000   0.000000   0.000000   0.000000
     22       0.000000   0.000000   0.000000   0.000000   0.000000   0.000000
     23       0.000000   0.000000   0.000000   0.000000   0.000000   0.000000
     24       0.000000   0.000000   0.000000   0.000000   0.000000   0.000000
     25       0.000000   0.000000   0.000000   0.000000   0.000000   0.000000
     26       0.000000   0.000000   0.000000   0.000000   0.000000   0.000000
     27       0.000000   0.000000   0.000000   0.000000   0.000000   0.000000
[...]
     28      -0.320307  -0.431127  -0.005513   0.075911  -0.026595   0.120246
     29       0.394079   0.304095   0.022062  -0.090136   0.027967  -0.088354
     30       0.117637  -0.064168   0.079643  -0.392784   0.165816  -0.336273
     31       0.011966  -0.042247   0.032023  -0.371209   0.213213  -0.251398
     32      -0.236305   0.044863  -0.078379  -0.134545   0.115690  -0.194369
     33       0.111114  -0.002960  -0.418868   0.238603   0.367983   0.032060
     34      -0.035292   0.034796  -0.350360   0.185978   0.315392   0.038443
     35      -0.208525   0.076496  -0.285815   0.039567   0.252115  -0.017937
     36      -0.071783   0.047739  -0.372342  -0.256935  -0.417870   0.121321
     37       0.113564  -0.021448  -0.179965  -0.173770  -0.252799  -0.001584
     38      -0.547699   0.173605  -0.147710  -0.019905  -0.158527   0.347043
     39       0.121681  -0.048270   0.278223   0.109129   0.084337   0.171656
     40      -0.181044   0.034721   0.376129   0.235876   0.328800  -0.035446
     41       0.333787  -0.125745   0.369638   0.056450  -0.039550   0.349170
                 24         25         26         27         28         29    
      0       0.007831   0.039607   0.069387  -0.072799  -0.016271   0.055891
      1       0.000571  -0.053380  -0.127942  -0.100105  -0.027862   0.022872
      2       0.048261  -0.001680   0.012077   0.096182   0.019696  -0.042893
      3       0.001955   0.013106  -0.050192   0.098813   0.027802   0.011003
      4       0.019245   0.019421   0.066767  -0.024601  -0.006065  -0.036135
      5      -0.012901  -0.006838   0.046048   0.021606   0.007386  -0.027980
      6      -0.022036  -0.124025   0.001320   0.005901  -0.033267  -0.125799
      7      -0.045055   0.096184   0.028603   0.145178   0.057987   0.005936
      8      -0.009295   0.016226  -0.046588  -0.067060  -0.020579   0.145222
      9      -0.032400   0.164283  -0.042726   0.002500  -0.009113  -0.014267
     10       0.015293  -0.100948   0.010535  -0.028343   0.097176  -0.064081
     11      -0.043011  -0.057720   0.002549   0.003067  -0.066029   0.100665
     12      -0.018377  -0.032744   0.001026  -0.001281  -0.041914   0.041441
     13      -0.006650   0.029297  -0.001327   0.029496  -0.114360   0.055839
     14      -0.114877   0.005677  -0.007783  -0.013211   0.064622  -0.037102
     15       0.010058  -0.027439   0.008866  -0.014872   0.072489  -0.029633
     16      -0.011624   0.008445  -0.001633  -0.001701   0.013023  -0.034374
     17       0.058475   0.000929   0.008049  -0.006823   0.058697  -0.037618
     18       0.014009  -0.196558  -0.410301  -0.040627  -0.022145   0.150976
     19       0.024397  -0.157922  -0.311795  -0.092001  -0.035484   0.043117
     20      -0.104675   0.010788  -0.291275   0.068503   0.053625   0.183439
     21      -0.163115  -0.016799   0.152974  -0.316049  -0.068956   0.044994
     22      -0.014917   0.158420   0.219079  -0.256736  -0.050459   0.253683
     23      -0.349213  -0.167545   0.146706  -0.406712  -0.087657  -0.126731
     24       0.048998  -0.064303  -0.159804   0.125464   0.023065  -0.039911
     25       0.117020  -0.111267  -0.302149   0.144151   0.018103  -0.125056
     26      -0.101998   0.184856  -0.019786   0.276173   0.098620   0.093281
     27      -0.052942   0.055898   0.326495  -0.044558  -0.020150  -0.083025
     28      -0.115217   0.170170   0.276368  -0.002371   0.021316   0.068233
     29       0.094227  -0.137429   0.044408  -0.067073  -0.043448  -0.190860
     30       0.253579  -0.331903   0.311265  -0.099802  -0.084195   0.178365
     31       0.208981   0.060546   0.237479  -0.013319   0.028562   0.134387
     32       0.221885   0.614199  -0.240948  -0.614445  -0.049361  -0.486730
     33       0.097308   0.110432  -0.015006  -0.065535   0.160799   0.269870
     34       0.111332  -0.158565   0.041908  -0.034352   0.110479   0.050616
     35      -0.073224  -0.048354   0.026663   0.254342  -0.850083  -0.469421
     36       0.126237   0.027996   0.011301   0.040144  -0.157495   0.222372
     37      -0.050607   0.086473  -0.006105   0.049936  -0.168672   0.133183
     38       0.537718  -0.232432   0.062503  -0.011217   0.026798   0.012157
     39       0.263424   0.107159  -0.005830   0.046550  -0.169495   0.083005
     40       0.063153  -0.108043   0.017331   0.022730  -0.200463   0.244504
     41       0.443469   0.302994  -0.022315   0.082358  -0.155479  -0.005967
                 30         31         32         33         34         35    
      0       0.014273   0.070042   0.013013   0.014033   0.000056   0.000089
      1       0.036199   0.091164   0.018817   0.026681  -0.000026   0.000075
      2       0.002398  -0.026643  -0.005834  -0.019771  -0.000030  -0.000001
      3      -0.000898   0.003212   0.000356  -0.045324   0.000631   0.000090
      4       0.015876  -0.001146  -0.002916  -0.029649  -0.000144  -0.000043
      5       0.001624  -0.016396  -0.000973  -0.064017  -0.000261  -0.000125
      6       0.059420  -0.045187  -0.025490  -0.017516  -0.004351  -0.000528
      7       0.020800  -0.030848  -0.022239  -0.022350   0.003483   0.000162
      8      -0.080085   0.100999   0.053248   0.025747   0.001189   0.000301
      9      -0.062207   0.034776   0.033101   0.003360   0.051494   0.005016
     10      -0.043310   0.019795   0.056228   0.005099  -0.066684  -0.009825
     11       0.111394  -0.054796  -0.129241  -0.006095   0.009551   0.005162
     12       0.013659   0.004023  -0.084868  -0.000210  -0.003785   0.022651
     13       0.008927   0.010528  -0.131265  -0.002223  -0.001488   0.057085
     14      -0.010120  -0.002218   0.047237  -0.000154   0.002614  -0.016430
     15      -0.012916   0.004568   0.023112   0.000958  -0.001016  -0.000061
     16      -0.020555   0.010255   0.013828   0.000073  -0.000573   0.000448
     17      -0.015859   0.002025   0.041062   0.000804   0.000947  -0.001010
     18      -0.426224  -0.528314  -0.045988  -0.059356   0.001913   0.000725
     19      -0.165218  -0.191788  -0.009134  -0.010307   0.001734  -0.001113
     20       0.087943   0.196509   0.016611   0.040868  -0.002243  -0.000161
     21      -0.020688   0.011113   0.007219   0.019654   0.000115  -0.000843
     22      -0.504589  -0.551224  -0.037736  -0.063995   0.001545   0.000275
     23       0.014927  -0.075584  -0.015384   0.001095  -0.001215   0.000105
     24       0.008641  -0.019213  -0.004255   0.009541  -0.005961  -0.000904
     25       0.022078  -0.107058  -0.033407   0.428811  -0.000137   0.000180
     26      -0.037276  -0.083033  -0.029699   0.557751  -0.006080  -0.000554
     27       0.004590  -0.128534  -0.044971   0.623907  -0.000689   0.000216
     28      -0.022411   0.018427   0.004737  -0.033250   0.000209  -0.000011
     29       0.048542  -0.107163  -0.033622   0.303941  -0.003010  -0.000977
     30      -0.138056   0.110832   0.068349   0.036879   0.030630   0.003702
     31      -0.069526   0.031791   0.014477   0.007066  -0.042465  -0.003068
     32       0.287859  -0.220043  -0.145582  -0.030980   0.010854   0.000006
     33       0.164568  -0.070116  -0.129135  -0.010481  -0.602900  -0.064671
     34       0.065223  -0.026877  -0.007896   0.001887   0.771493   0.079711
     35      -0.319397   0.162356   0.217542   0.003959  -0.130571  -0.012273
     36       0.293937  -0.239159   0.568200  -0.000837  -0.024063   0.295661
     37       0.144975  -0.109774   0.189311  -0.003327   0.059049  -0.703050
     38      -0.082658   0.092042  -0.283437   0.004366   0.002312  -0.112761
     39       0.031102  -0.012213  -0.025676  -0.000710   0.091001  -0.558608
     40       0.365627  -0.290361   0.635576  -0.001917  -0.009225   0.054606
     41      -0.051851   0.023992   0.047520  -0.000942  -0.040226   0.275063
                 36         37         38         39         40         41    
      0       0.028996   0.004002  -0.000178  -0.080623   0.000764   0.000312
      1       0.057145  -0.005740   0.000240   0.054611   0.001511  -0.000056
      2      -0.015193  -0.001124   0.000089   0.031576  -0.000988  -0.000128
      3      -0.001206   0.001851   0.000073   0.002066  -0.033463   0.064378
      4      -0.001152  -0.000773   0.000048  -0.001377  -0.015903  -0.051072
      5      -0.001385   0.000714  -0.000024  -0.000617  -0.039896  -0.028327
      6      -0.001059  -0.052908   0.002140  -0.002729  -0.000534  -0.000224
      7      -0.001380   0.068286  -0.003937   0.004212  -0.001377  -0.000122
      8       0.002369  -0.012759   0.000724  -0.001230   0.000296   0.000631
      9      -0.000135  -0.001645   0.002095   0.000221   0.000780  -0.000104
     10      -0.000280   0.003460  -0.002953   0.000441  -0.000555   0.000415
     11       0.000399  -0.001754   0.000664   0.000020   0.000326   0.000080
     12      -0.000031   0.003832   0.078704   0.000220   0.000159  -0.000034
     13      -0.000094  -0.002911  -0.052643  -0.000169   0.000005   0.000066
     14      -0.000000  -0.001823  -0.036872  -0.000102  -0.000102  -0.000024
     15      -0.000008   0.000140  -0.000991  -0.000041  -0.000210   0.000067
     16       0.000014   0.000015   0.000690  -0.000019   0.000068  -0.000038
     17      -0.000084   0.000168   0.000406   0.000007   0.000137   0.000105
     18       0.295453  -0.017908   0.000426   0.255633   0.005571  -0.001044
     19      -0.678972   0.038407  -0.000365  -0.600647  -0.000974   0.008342
     20      -0.087379   0.010427  -0.000770  -0.070492   0.001772   0.003499
     21      -0.608727  -0.037702   0.000646   0.682081  -0.000533  -0.009445
     22       0.045571   0.002056  -0.000223  -0.042623   0.004382  -0.000268
     23       0.258715   0.012328   0.000321  -0.295670   0.004871   0.000876
     24      -0.005227  -0.000911  -0.001559  -0.003506   0.695230  -0.623927
     25       0.000532  -0.002905   0.000655   0.008691  -0.233093   0.203335
     26      -0.001070   0.006786  -0.000862  -0.000843   0.110077  -0.106910
     27      -0.000524  -0.002532   0.000307  -0.008136  -0.240122  -0.256569
     28      -0.004198   0.008824  -0.001096   0.001145   0.445737   0.494008
     29      -0.003175   0.000825  -0.000532   0.006686   0.436742   0.490168
     30       0.003533   0.600781  -0.030879   0.032704  -0.001781  -0.005693
     31      -0.008608  -0.776883   0.038062  -0.050613   0.003879   0.004613
     32       0.003199   0.137339  -0.005347   0.008394   0.004588  -0.003249
     33       0.001156   0.034278  -0.019561   0.003018  -0.002563   0.001240
     34       0.000351  -0.040046   0.036160  -0.001963   0.004653  -0.002936
     35      -0.001533   0.003681  -0.005797  -0.001155  -0.001210   0.001058
     36      -0.000518  -0.011618  -0.232130  -0.000532  -0.000291   0.000123
     37       0.001241   0.027295   0.572294   0.001131   0.000522  -0.000389
     38       0.000244   0.006075   0.081093   0.000477  -0.000081   0.000085
     39       0.000851  -0.035651  -0.688677  -0.001389  -0.001100   0.000252
     40      -0.000154   0.001935   0.049421   0.000152  -0.000231  -0.000038
     41      -0.000344   0.017986   0.347531   0.000450   0.001018  -0.000235


-----------
IR SPECTRUM
-----------

 Mode    freq (cm**-1)   T**2         TX         TY         TZ
-------------------------------------------------------------------
   6:        73.78    0.251064  ( -0.277348   0.314353  -0.274452)
   7:       216.43    1.152141  (  0.325290  -0.822928  -0.607550)
   8:       253.81    0.074662  (  0.180833  -0.166161  -0.119800)
   9:       390.72    7.188964  ( -1.024831  -0.467059   2.433216)
  10:       495.99    8.297930  ( -0.759681  -0.052035   2.778148)
  11:       781.55    9.518590  ( -0.224024  -0.996724  -2.911176)
  12:       820.45    4.458652  ( -0.037626  -0.501063  -2.050896)
  13:       870.52    6.264991  (  2.130260   0.837112  -1.013028)
  14:       884.97   10.799495  (  1.275678   2.246711   2.030869)
  15:       913.78   33.816756  ( -3.177845  -2.087578  -4.400009)
  16:       938.92   45.400580  ( -2.867840   0.874434  -6.034189)
  17:       977.15    8.678206  (  2.852001   0.731726  -0.094204)
  18:      1007.66    6.911204  ( -0.071050  -2.483726  -0.858640)
  19:      1032.06   93.838004  ( -3.185344  -6.748985   6.175985)
  20:      1105.08    1.473070  (  1.001769  -0.525110   0.440214)
  21:      1154.38    0.200199  ( -0.267187  -0.226280  -0.278581)
  22:      1167.28    2.236025  (  1.131017  -0.976164   0.062694)
  23:      1175.76    1.627823  (  0.543744  -0.756175   0.871989)
  24:      1181.69    1.016130  (  0.911577   0.199668  -0.381170)
  25:      1224.79    0.260358  (  0.178025  -0.418236  -0.231826)
  26:      1250.11    3.643413  (  1.457399  -0.565779  -1.095124)
  27:      1264.69    1.404218  ( -0.903439   0.245887  -0.726330)
  28:      1302.61   12.883745  ( -2.473128  -2.559214  -0.466702)
  29:      1359.83   11.564757  (  0.809078   0.621789   3.243999)
  30:      1476.84    2.487998  (  0.075145  -0.959341   1.249806)
  31:      1498.56   11.837245  ( -1.703950  -2.868515   0.839895)
  32:      1532.37    2.701812  ( -1.273311   0.171291  -1.025256)
  33:      1633.70   64.437173  (  4.088810   1.620666   6.715076)
  34:      3106.57    8.186075  (  1.363830  -1.738970   1.817147)
  35:      3121.82    5.229935  (  0.796801   1.932615   0.927385)
  36:      3170.10    4.618468  ( -1.292157  -1.650539   0.473834)
  37:      3203.37    3.447113  (  1.178822  -1.310579   0.582988)
  38:      3222.35    1.228266  (  0.777468  -0.755265  -0.231051)
  39:      3273.91    8.352324  (  2.278749  -1.539633  -0.888344)
  40:      3508.07  115.653465  (  5.071096   3.049655   8.979814)
  41:      3610.81  133.983280  ( -8.376175   6.622525   4.468237)

The first frequency considered to be a vibration is 6
The total number of vibrations considered is 36


--------------------------
THERMOCHEMISTRY AT 298.15K
--------------------------

Temperature         ... 298.15 K
Pressure            ... 1.00 atm
Total Mass          ... 86.11 AMU

Throughout the following assumptions are being made:
  (1) The electronic state is orbitally nondegenerate
  (2) There are no thermally accessible electronically excited states
  (3) Hindered rotations indicated by low frequency modes) are not
      treated as such but are treated as vibrations and this may
      case some error
  (4) All equations used are the standard statistical mechanics
      equations for an ideal gas
  (5) All vibrations are strinctly harmonic


------------
INNER ENERGY
------------

The inner energy is: U= E(el) + E(ZPE) + E(vib) + E(rot) + E(trans)
    E(el)   - is the total energy from the electronic structure calculation
              = E(kin-el) + E(nuc-el) + E(el-el) + E(nuc-nuc)
    E(ZPE)  - the the zero temperature vibrational energy from the frequency calculation
    E(vib)  - the the finite temperature correction to E(ZPE) due to population
              of excietd vibrational states
    E(rot)  - is the rotational thermal energy
    E(trans)- is the translational thermal energy

Summary of contributions to the inner energy U:
Electronic energy                ...   -286.66260642 Eh
Zero point energy                ...      0.12348240 Eh      77.49 kcal/mol
Thermal vibrational correction   ...      0.00300806 Eh       1.89 kcal/mol
Thermal rotational correction    ...      0.00141627 Eh       0.89 kcal/mol
Thermal translational correction ...      0.00141627 Eh       0.89 kcal/mol
-----------------------------------------------------------------------
Total thermal energy                   -286.53328342 Eh


Summary of corrections to the electronic energy:
(perhaps to be used in another calculation)
Total thermal correction                  0.00584061 Eh       3.67 kcal/mol
Non-thermal (ZPE) correction              0.12348240 Eh      77.49 kcal/mol
-----------------------------------------------------------------------
Total correction                          0.12932301 Eh      81.15 kcal/mol


--------
ENTHALPY
--------

The enthalpy is H = U + kB*T
                kB is Boltzmann's constant
Total free energy                 ...   -286.53328342 Eh 
Thermal Enthalpy correction       ...      0.00094421 Eh       0.59 kcal/mol
-----------------------------------------------------------------------
Total Enthalpy                    ...   -286.53233921 Eh


-------
ENTROPY
-------

The entropy contributions are T*S = T*(S(el)+S(vib)+S(rot)+S(trans)
     S(el)   - electronic entropy
     S(vib)  - vibrational entropy
     S(rot)  - rotational entropy
     S(trans)- translational entropy
The entropies will be listed as mutliplied by the temperature to get
units of energy

Electronic entropy                ...      0.00000000 Eh      0.00 kcal/mol
Vibrational entropy               ...      0.00527214 Eh      3.31 kcal/mol
Rotational entropy                ...      0.01146407 Eh      7.19 kcal/mol
Translational entropy             ...      0.01865951 Eh     11.71 kcal/mol
-----------------------------------------------------------------------
Final entropy term                ...      0.03539573 Eh     22.21 kcal/mol


CAUTION: The rotational entropy is not quite correctly treated here
         because it includes a symmetry number that is not yet correctly
         implemented in ORCA!
For a nonlinear molecule the correct rotational entropy is:
    S(rot) = R*(ln(qrot/sn)+1.5)
    R    = 8.31441 J/mol/K = 1.987191683e-3 kcal/mol/K
    qrot = 125546.1399075
    sn is the rotational symmetry number. We have assumed 3 here
       if it is different for your molecule then you should correct
       the printed rotational entropy by manually evaluating the equation
       as given above

For convenience we print out the resulting values for sn=1 - 12:
 sn= 1  qrot/sn=  125546.1399 T*S(rot)=     7.84 kcal/mol T*S(tot)=    22.86 kcal/mol
 sn= 2  qrot/sn=   62773.0700 T*S(rot)=     7.43 kcal/mol T*S(tot)=    22.45 kcal/mol
 sn= 3  qrot/sn=   41848.7133 T*S(rot)=     7.19 kcal/mol T*S(tot)=    22.21 kcal/mol
 sn= 4  qrot/sn=   31386.5350 T*S(rot)=     7.02 kcal/mol T*S(tot)=    22.04 kcal/mol
 sn= 5  qrot/sn=   25109.2280 T*S(rot)=     6.89 kcal/mol T*S(tot)=    21.91 kcal/mol
 sn= 6  qrot/sn=   20924.3567 T*S(rot)=     6.78 kcal/mol T*S(tot)=    21.80 kcal/mol
 sn= 7  qrot/sn=   17935.1628 T*S(rot)=     6.69 kcal/mol T*S(tot)=    21.71 kcal/mol
 sn= 8  qrot/sn=   15693.2675 T*S(rot)=     6.61 kcal/mol T*S(tot)=    21.63 kcal/mol
 sn= 9  qrot/sn=   13949.5711 T*S(rot)=     6.54 kcal/mol T*S(tot)=    21.56 kcal/mol
 sn=10  qrot/sn=   12554.6140 T*S(rot)=     6.48 kcal/mol T*S(tot)=    21.50 kcal/mol
 sn=11  qrot/sn=   11413.2854 T*S(rot)=     6.42 kcal/mol T*S(tot)=    21.44 kcal/mol
 sn=12  qrot/sn=   10462.1783 T*S(rot)=     6.37 kcal/mol T*S(tot)=    21.39 kcal/mol


-------------------
GIBBS FREE ENTHALPY
-------------------

The Gibbs free enthalpy is G = H - T*S

Total enthalpy                    ...   -286.53233921 Eh 
Total entropy correction          ...     -0.03539573 Eh    -22.21 kcal/mol
-----------------------------------------------------------------------
Final Gibbs free enthalpy         ...   -286.56773493 Eh

For completeness - the Gibbs free enthalpy minus the electronic energy
G-E(el)                           ...      0.09487149 Eh     59.53 kcal/mol


Timings for individual modules:

Sum of individual times         ...      883.506 sec (=  14.725 min)
GTO integral calculation        ...        7.032 sec (=   0.117 min)   0.8 %
SCF iterations                  ...       71.347 sec (=   1.189 min)   8.1 %
SCF Gradient evaluation         ...       34.515 sec (=   0.575 min)   3.9 %
Geometry relaxation             ...        0.142 sec (=   0.002 min)   0.0 %
Analytical frequency calculation...      770.470 sec (=  12.841 min)  87.2 %
                             ****ORCA TERMINATED NORMALLY****
TOTAL RUN TIME: 0 days 0 hours 14 minutes 45 seconds 100 msec
