
                                 *****************
                                 * O   R   C   A *
                                 *****************

           --- An Ab Initio, DFT and Semiempirical electronic structure package ---

                  #######################################################
                  #                        -***-                        #
                  #  Department of molecular theory and spectroscopy    #
                  #              Directorship: Frank Neese              #
                  # Max Planck Institute for Chemical Energy Conversion #
                  #                  D-45470 Muelheim/Ruhr              #
                  #                       Germany                       #
                  #                                                     #
                  #                  All rights reserved                #
                  #                        -***-                        #
                  #######################################################


                         Program Version 3.0.3 - RELEASE   -


 With contributions from (in alphabetic order):
   Ute Becker             : Parallelization
   Dmytro Bykov           : SCF Hessian
   Dmitry Ganyushin       : Spin-Orbit,Spin-Spin,Magnetic field MRCI
   Andreas Hansen         : Spin unrestricted coupled pair/coupled cluster methods
   Dimitrios Liakos       : Extrapolation schemes; parallel MDCI
   Robert Izsak           : Overlap fitted RIJCOSX, COSX-SCS-MP3
   Christian Kollmar      : KDIIS, OOCD, Brueckner-CCSD(T), CCSD density
   Simone Kossmann        : Meta GGA functionals, TD-DFT gradient, OOMP2, MP2 Hessian
   Taras Petrenko         : DFT Hessian,TD-DFT gradient, ASA and ECA modules, normal mode analysis, Resonance Raman, ABS, FL, XAS/XES, NRVS
   Christoph Reimann      : Effective Core Potentials
   Michael Roemelt        : Restricted open shell CIS
   Christoph Riplinger    : Improved optimizer, TS searches, QM/MM, DLPNO-CCSD
   Barbara Sandhoefer     : DKH picture change effects
   Igor Schapiro          : Molecular dynamics
   Kantharuban Sivalingam : CASSCF convergence, NEVPT2
   Boris Wezisla          : Elementary symmetry handling
   Frank Wennmohs         : Technical directorship


 We gratefully acknowledge several colleagues who have allowed us to
 interface, adapt or use parts of their codes:
   Stefan Grimme, W. Hujo, H. Kruse, T. Risthaus : VdW corrections, initial TS optimization,
                                                   DFT functionals, gCP
   Ed Valeev                                     : LibInt (2-el integral package), F12 methods
   Garnet Chan, S. Sharma, R. Olivares           : DMRG
   Ulf Ekstrom                                   : XCFun DFT Library
   Mihaly Kallay                                 : mrcc  (arbitrary order and MRCC methods)
   Andreas Klamt, Michael Diedenhofen            : otool_cosmo (COSMO solvation model)
   Frank Weinhold                                : gennbo (NPA and NBO analysis)
   Christopher J. Cramer and Donald G. Truhlar   : smd solvation model


 Your calculation uses the libint2 library for the computation of 2-el integrals
 For citations please refer to: http://libint.valeyev.net

 This ORCA versions uses:
   CBLAS   interface :  Fast vector & matrix operations
   LAPACKE interface :  Fast linear algebra routines
   SCALAPACK package :  Parallel linear algebra routines


Your calculation utilizes the basis: Ahlrichs-TZV
Cite in your paper:
H - Kr: A. Schaefer, H. Horn and R. Ahlrichs, J. Chem. Phys. 97, 2571 (1992).

The def2-TZV basis will be loaded
Cite in your paper:
 	F. Weigend, R. Ahlrichs, Phys. Chem. Chem. Phys. 2005, 7, 3297.

================================================================================
                                        WARNINGS
                       Please study these warnings very carefully!
================================================================================
Now building the actual basis set
WARNING: Geometry optimizations can change the point-group symmetry!

WARNING: Geometry Optimization
  ===> : Switching off AutoStart
         For restart on a previous wavefunction, please use MOREAD


INFO   : the flag for use of LIBINT has been found!

================================================================================
                                       INPUT FILE
================================================================================
NAME = 0982_+.inp
|  1> ! NORI PBE0 def2-TZVP UseSym TightOPT Freq TightSCF Grid3 FinalGrid5 XYZFile
|  2> % pal
|  3>     nprocs 8
|  4> end
|  5> %method
|  6>     SymThresh 5.0e-2
|  7> end
|  8> % geom 
|  9>     MaxIter 10
| 10> end 
| 11> % maxcore 2000
| 12> % output
| 13>     printlevel mini
| 14>     print[ P_Basis ] 0
| 15>     print[ P_SCFInfo ] 1
| 16>     print[ P_SCFIterInfo ] 1
| 17>     print[ P_OrbEn ] 0
| 18>     print[ P_Cartesian ] 0
| 19> end
| 20> % elprop
| 21>     Dipole false
| 22> end
| 23> *xyz 1 1
| 24>  C        0.9985219288     0.1087277673    -0.0873110354 
| 25>  C        2.4718705777     0.2284336305     0.1137685207 
| 26>  N        3.3583714638    -0.6978277951    -0.6459200988 
| 27>  C        3.3755150005     0.7636883440    -0.9300011905 
| 28>  C        4.6275164348     1.5040287540    -0.5358202263 
| 29>  O        4.9301309351     2.5217258686    -1.0674365322 
| 30>  H        0.5270278132     1.0326196356     0.2538463285 
| 31>  H        0.5901533281    -0.7138733856     0.5015821684 
| 32>  H        0.7385836751    -0.0310492650    -1.1386225522 
| 33>  H        2.8194398759     0.3352786900     1.1380545915 
| 34>  H        4.1639783155    -1.1042520448    -0.1773791589 
| 35>  H        2.9354579502    -1.3046284114    -1.3420197069 
| 36>  H        2.9566901088     1.0295768712    -1.8944297186 
| 37>  H        5.2150025924     1.0553413406     0.2955586108 
| 38> *
| 39> 
| 40>                          ****END OF INPUT****
================================================================================

The point group is C1 - hence turning off symmetry
If this is a round-off problem, please increase the symmetry
        detection tolerance (%method SymThresh)


                       *****************************
                       * Geometry Optimization Run *
                       *****************************

Geometry optimization settings:
Update method            Update   .... BFGS
Choice of coordinates    CoordSys .... Redundant Internals
Initial Hessian          InHess   .... Almoef's Model

Convergence Tolerances:
Energy Change            TolE     ....  1.0000e-06 Eh
Max. Gradient            TolMAXG  ....  1.0000e-04 Eh/bohr
RMS Gradient             TolRMSG  ....  3.0000e-05 Eh/bohr
Max. Displacement        TolMAXD  ....  1.0000e-03 bohr
RMS Displacement         TolRMSD  ....  6.0000e-04 bohr

------------------------------------------------------------------------------
                        ORCA OPTIMIZATION COORDINATE SETUP
------------------------------------------------------------------------------

The optimization will be done in new redundant internal coordinates
Making redundant internal coordinates   ...  (new redundants) done
Evaluating the initial hessian          ...  (Almloef) done
Evaluating the coordinates              ...  done
Calculating the B-matrix                .... done
Calculating the G-matrix                .... done
Diagonalizing the G-matrix              .... done
The first mode is                       ....   44
The number of degrees of freedom        ....   36

    -----------------------------------------------------------------
                    Redundant Internal Coordinates


    -----------------------------------------------------------------
         Definition                    Initial Value    Approx d2E/dq
    -----------------------------------------------------------------
      1. B(C   1,C   0)                  1.4918         0.429829   
      2. B(N   2,C   1)                  1.4903         0.387138   
      3. B(C   3,C   1)                  1.4807         0.447717   
      4. B(C   3,N   2)                  1.4890         0.389026   
      5. B(C   4,C   3)                  1.5070         0.406540   
      6. B(O   5,C   4)                  1.1874         1.177943   
      7. B(H   6,C   0)                  1.0919         0.357580   
      8. B(H   7,C   0)                  1.0910         0.358809   
      9. B(H   8,C   0)                  1.0920         0.357526   
     10. B(H   9,C   1)                  1.0869         0.364205   
     11. B(H  10,N   2)                  1.0167         0.422161   
     12. B(H  11,N   2)                  1.0157         0.423764   
     13. B(H  12,C   3)                  1.0845         0.367392   
     14. B(H  13,C   4)                  1.1125         0.331535   
     15. A(C   1,C   0,H   6)          108.4485         0.331524   
     16. A(H   7,C   0,H   8)          109.5161         0.290348   
     17. A(H   6,C   0,H   7)          107.9206         0.290355   
     18. A(C   1,C   0,H   7)          110.9422         0.331712   
     19. A(H   6,C   0,H   8)          107.8382         0.290192   
     20. A(C   1,C   0,H   8)          112.0333         0.331515   
     21. A(C   0,C   1,H   9)          116.7903         0.332534   
     22. A(N   2,C   1,C   3)           60.1533         0.374773   
     23. A(C   0,C   1,N   2)          117.9632         0.372147   
     24. A(C   3,C   1,H   9)          115.6966         0.334792   
     25. A(N   2,C   1,H   9)          110.5647         0.324878   
     26. A(C   0,C   1,C   3)          122.4601         0.384047   
     27. A(H  10,N   2,H  11)          114.0129         0.301059   
     28. A(C   3,N   2,H  11)          117.4162         0.330526   
     29. A(C   1,N   2,H  11)          118.2291         0.330260   
     30. A(C   3,N   2,H  10)          118.1104         0.330319   
     31. A(C   1,N   2,H  10)          119.0041         0.330053   
     32. A(C   1,N   2,C   3)           59.6046         0.363549   
     33. A(N   2,C   3,C   4)          116.2237         0.368908   
     34. A(C   1,C   3,C   4)          120.0146         0.380351   
     35. A(C   4,C   3,H  12)          115.6578         0.329957   
     36. A(N   2,C   3,H  12)          113.9448         0.325604   
     37. A(C   1,C   3,H  12)          118.6715         0.335277   
     38. A(C   1,C   3,N   2)           60.2422         0.375087   
     39. A(O   5,C   4,H  13)          123.0708         0.386050   
     40. A(C   3,C   4,H  13)          115.8530         0.324421   
     41. A(C   3,C   4,O   5)          121.0436         0.448680   
     42. D(N   2,C   1,C   0,H   8)    -42.3954         0.014605   
     43. D(H   9,C   1,C   0,H   7)    -55.1860         0.014605   
     44. D(H   9,C   1,C   0,H   8)   -177.9218         0.014605   
     45. D(C   3,C   1,C   0,H   7)    151.0650         0.014605   
     46. D(C   3,C   1,C   0,H   6)    -90.5769         0.014605   
     47. D(H   9,C   1,C   0,H   6)     63.1721         0.014605   
     48. D(C   3,C   1,C   0,H   8)     28.3292         0.014605   
     49. D(N   2,C   1,C   0,H   7)     80.3404         0.014605   
     50. D(N   2,C   1,C   0,H   6)   -161.3015         0.014605   
     51. D(C   3,N   2,C   1,C   0)    113.3262         0.013712   
     52. D(H  10,N   2,C   1,C   0)   -139.2536         0.013712   
     53. D(H  10,N   2,C   1,H   9)     -1.1622         0.013712   
     54. D(C   3,N   2,C   1,H   9)   -108.5825         0.013712   
     55. D(H  11,N   2,C   1,C   0)      6.4099         0.013712   
     56. D(H  10,N   2,C   1,C   3)    107.4202         0.013712   
     57. D(H  11,N   2,C   1,H   9)    144.5012         0.013712   
     58. D(H  11,N   2,C   1,C   3)   -106.9163         0.013712   
     59. D(C   4,C   3,N   2,H  11)   -140.5879         0.013844   
     60. D(C   4,C   3,N   2,H  10)      2.2400         0.013844   
     61. D(C   4,C   3,N   2,C   1)    111.1429         0.013844   
     62. D(C   1,C   3,N   2,H  10)   -108.9029         0.013844   
     63. D(H  12,C   3,C   1,H   9)   -157.2983         0.015835   
     64. D(H  12,C   3,C   1,N   2)    102.7206         0.015835   
     65. D(H  12,C   3,C   1,C   0)     -3.2849         0.015835   
     66. D(C   4,C   3,C   1,H   9)     -4.9433         0.015835   
     67. D(C   1,C   3,N   2,H  11)    108.2692         0.013844   
     68. D(C   4,C   3,C   1,N   2)   -104.9244         0.015835   
     69. D(C   4,C   3,C   1,C   0)    149.0701         0.015835   
     70. D(N   2,C   3,C   1,H   9)     99.9811         0.015835   
     71. D(H  12,C   3,N   2,C   1)   -110.5375         0.013844   
     72. D(N   2,C   3,C   1,C   0)   -106.0055         0.015835   
     73. D(H  12,C   3,N   2,H  11)     -2.2683         0.013844   
     74. D(H  12,C   3,N   2,H  10)    140.5596         0.013844   
     75. D(H  13,C   4,C   3,N   2)    -26.0848         0.012249   
     76. D(H  13,C   4,C   3,C   1)     43.1578         0.012249   
     77. D(O   5,C   4,C   3,H  12)     18.3252         0.012249   
     78. D(O   5,C   4,C   3,N   2)    155.9311         0.012249   
     79. D(H  13,C   4,C   3,H  12)   -163.6907         0.012249   
     80. D(O   5,C   4,C   3,C   1)   -134.8263         0.012249   
    -----------------------------------------------------------------

Number of atoms                         .... 14
Number of degrees of freedom            .... 80

         *************************************************************
         *                GEOMETRY OPTIMIZATION CYCLE   1            *
         *************************************************************


           ************************************************************
           *        Program running with 8 parallel MPI-processes     *
           *              working on a common directory               *
           ************************************************************
           ************************************************************
           *              Shut down parallel processing               *
           ************************************************************


           ************************************************************
           *        Program running with 8 parallel MPI-processes     *
           *              working on a common directory               *
           ************************************************************
------------
SCF SETTINGS
------------
Hamiltonian:
 Density Functional     Method          .... DFT(GTOs)
 Exchange Functional    Exchange        .... PBE
   PBE kappa parameter  XKappa          ....  0.804000
 Correlation Functional Correlation     .... PBE
 LDA part of GGA corr.  LDAOpt          .... PW91-LDA
 Gradients option       PostSCFGGA      .... off
 Hybrid DFT is turned on
   Fraction HF Exchange ScalHFX         ....  0.250000
   Scaling of DF-GGA-X  ScalDFX         ....  0.750000
   Scaling of DF-GGA-C  ScalDFC         ....  1.000000
   Scaling of DF-LDA-C  ScalLDAC        ....  1.000000
   Perturbative correction              ....  0.000000
   NL short-range parameter             ....  6.900000


General Settings:
 Integral files         IntName         .... 0982_+
 Hartree-Fock type      HFTyp           .... RHF
 Total Charge           Charge          ....    1
 Multiplicity           Mult            ....    1
 Number of Electrons    NEL             ....   46
 Basis Dimension        Dim             ....  234
 Nuclear Repulsion      ENuc            ....    237.0520627024 Eh

Convergence Acceleration:
 DIIS                   CNVDIIS         .... on
   Start iteration      DIISMaxIt       ....    12
   Startup error        DIISStart       ....  0.200000
   # of expansion vecs  DIISMaxEq       ....     5
   Bias factor          DIISBfac        ....   1.050
   Max. coefficient     DIISMaxC        ....  10.000
 Newton-Raphson         CNVNR           .... off
 SOSCF                  CNVSOSCF        .... on
   Start iteration      SOSCFMaxIt      ....   150
   Startup grad/error   SOSCFStart      ....  0.003300
 Level Shifting         CNVShift        .... on
   Level shift para.    LevelShift      ....    0.2500
   Turn off err/grad.   ShiftErr        ....    0.0010
 Zerner damping         CNVZerner       .... off
 Static damping         CNVDamp         .... on
   Fraction old density DampFac         ....    0.7000
   Max. Damping (<1)    DampMax         ....    0.9800
   Min. Damping (>=0)   DampMin         ....    0.0000
   Turn off err/grad.   DampErr         ....    0.1000
 Fernandez-Rico         CNVRico         .... off

SCF Procedure:
 Maximum # iterations   MaxIter         ....   125
 SCF integral mode      SCFMode         .... Direct
   Integral package                     .... LIBINT
 Reset frequeny         DirectResetFreq ....    20
 Integral Threshold     Thresh          ....  2.500e-11 Eh
 Primitive CutOff       TCut            ....  2.500e-12 Eh

Convergence Tolerance:
 Convergence Check Mode ConvCheckMode   .... Total+1el-Energy
 Energy Change          TolE            ....  1.000e-08 Eh
 1-El. energy change                    ....  1.000e-05 Eh
 Orbital Gradient       TolG            ....  1.000e-05
 Orbital Rotation angle TolX            ....  1.000e-05
 DIIS Error             TolErr          ....  5.000e-07


Diagonalization of the overlap matrix:
Smallest eigenvalue                        ... 1.322e-04
Time for diagonalization                   ...    0.013 sec
Threshold for overlap eigenvalues          ... 1.000e-08
Number of eigenvalues below threshold      ... 0
Time for construction of square roots      ...    0.005 sec
Total time needed                          ...    0.018 sec

-------------------
DFT GRID GENERATION
-------------------

General Integration Accuracy     IntAcc      ...  4.340
Radial Grid Type                 RadialGrid  ... Gauss-Chebyshev
Angular Grid (max. acc.)         AngularGrid ... Lebedev-194
Angular grid pruning method      GridPruning ... 3 (G Style)
Weight generation scheme         WeightScheme... Becke
Basis function cutoff            BFCut       ...    1.0000e-11
Integration weight cutoff        WCut        ...    1.0000e-14
Grids for H and He will be reduced by one unit

# of grid points (after initial pruning)     ...  32028 (   0.0 sec)
# of grid points (after weights+screening)   ...  29795 (   0.0 sec)
nearest neighbour list constructed           ...    0.0 sec
Grid point re-assignment to atoms done       ...    0.0 sec
Grid point division into batches done        ...    0.0 sec
Reduced shell lists constructed in    0.1 sec

Total number of grid points                  ...    29795
Total number of batches                      ...      475
Average number of points per batch           ...       62
Average number of grid points per atom       ...     2128
Average number of shells per batch           ...    79.97 (81.60%)
Average number of basis functions per batch  ...   193.84 (82.84%)
Average number of large shells per batch     ...    68.23 (85.32%)
Average number of large basis fcns per batch ...   165.90 (85.59%)
Maximum spatial batch extension              ...   2.35,  2.13,  2.21 au
Average spatial batch extension              ...   0.15,  0.14,  0.15 au

Time for grid setup =    0.127 sec

Loading Hartree-Fock densities                     ... done
Calculating cut-offs                               ... done
Setting up the integral package                    ... done
Initializing the effective Hamiltonian             ... done
Starting the Coulomb interaction                   ... done (   0.0 sec)
Reading the grid                                   ... done
Mapping shells                                     ... done
Starting the XC term evaluation                    ... done (   0.1 sec)
  promolecular density results
     # of electrons  =     46.996380286
     EX              =    -37.547198244
     EC              =     -1.553047231
     EX+EC           =    -39.100245475
Transforming the Hamiltonian                       ... done (   0.0 sec)
Diagonalizing the Hamiltonian                      ... done (   0.0 sec)
Back transforming the eigenvectors                 ... done (   0.0 sec)
Now organizing SCF variables                       ... done
--------------
SCF ITERATIONS
--------------
ITER       Energy         Delta-E        Max-DP      RMS-DP      [F,P]     Damp
               ***  Starting incremental Fock matrix formation  ***
  0   -286.5406073357   0.000000000000 0.17797919  0.00156633  0.2569935 0.7000
  1   -286.6123861864  -0.071778850719 0.13753531  0.00116697  0.0933549 0.7000
                               ***Turning on DIIS***
  2   -286.6372867460  -0.024900559573 0.12207785  0.00153273  0.0334192 0.0000
  3   -286.6832072221  -0.045920476081 0.14054732  0.00105612  0.0454400 0.0000
  4   -286.6901130173  -0.006905795227 0.02892281  0.00025766  0.0222515 0.0000
                      *** Initiating the SOSCF procedure ***
                           *** Shutting down DIIS ***
                      *** Re-Reading the Fockian *** 
                      *** Removing any level shift *** 
ITER      Energy       Delta-E        Grad      Rot      Max-DP    RMS-DP
  5   -286.69109383  -0.0009808136  0.000512  0.000512  0.009853  0.000083
               *** Restarting incremental Fock matrix formation ***
  6   -286.69111474  -0.0000209043  0.000278  0.000846  0.002664  0.000033
  7   -286.69111557  -0.0000008313  0.000353  0.000390  0.003182  0.000026
  8   -286.69111713  -0.0000015596  0.000131  0.000181  0.001257  0.000012
  9   -286.69111730  -0.0000001785  0.000045  0.000042  0.000324  0.000003
 10   -286.69111745  -0.0000001423  0.000019  0.000037  0.000251  0.000002
 11   -286.69111745  -0.0000000065  0.000012  0.000010  0.000041  0.000001
                  ***Gradient check signals convergence***
              ***Rediagonalizing the Fockian in SOSCF/NRSCF***

               *****************************************************
               *                     SUCCESS                       *
               *           SCF CONVERGED AFTER  12 CYCLES          *
               *****************************************************

Setting up the final grid:

General Integration Accuracy     IntAcc      ...  5.010
Radial Grid Type                 RadialGrid  ... Gauss-Chebyshev
Angular Grid (max. acc.)         AngularGrid ... Lebedev-434
Angular grid pruning method      GridPruning ... 3 (G Style)
Weight generation scheme         WeightScheme... Becke
Basis function cutoff            BFCut       ...    1.0000e-11
Integration weight cutoff        WCut        ...    1.0000e-14
Grids for H and He will be reduced by one unit

# of grid points (after initial pruning)     ... 117760 (   0.0 sec)
# of grid points (after weights+screening)   ... 108398 (   0.1 sec)
nearest neighbour list constructed           ...    0.0 sec
Grid point re-assignment to atoms done       ...    0.0 sec
Grid point division into batches done        ...    0.7 sec
Reduced shell lists constructed in    0.8 sec

Total number of grid points                  ...   108398
Total number of batches                      ...     1700
Average number of points per batch           ...       63
Average number of grid points per atom       ...     7743
Average number of shells per batch           ...    79.50 (81.12%)
Average number of basis functions per batch  ...   193.16 (82.55%)
Average number of large shells per batch     ...    67.05 (84.34%)
Average number of large basis fcns per batch ...   163.28 (84.53%)
Maximum spatial batch extension              ...   2.02,  2.27,  2.90 au
Average spatial batch extension              ...   0.10,  0.10,  0.10 au

Final grid set up in    0.9 sec
Final integration                            ... done (   0.4 sec)
Change in XC energy                          ...     0.000371103
Integrated number of electrons               ...    45.999992198
Previous integrated no of electrons          ...    46.000368225
Total Energy       :         -286.69074636 Eh           -7801.25182 eV
  Last Energy change         ...   -4.7324e-09  Tolerance :   1.0000e-08
  Last MAX-Density change    ...    7.8095e-05  Tolerance :   1.0000e-07
             **** THE GBW FILE WAS UPDATED (0982_+.gbw) ****
             **** DENSITY FILE WAS UPDATED (0982_+.scfp.tmp) ****
             **** ENERGY FILE WAS UPDATED (0982_+.en.tmp) ****
Total SCF time: 0 days 0 hours 0 min 34 sec 
           ************************************************************
           *              Shut down parallel processing               *
           ************************************************************

-------------------------   --------------------
FINAL SINGLE POINT ENERGY      -286.690746355427
-------------------------   --------------------



           ************************************************************
           *        Program running with 8 parallel MPI-processes     *
           *              working on a common directory               *
           ************************************************************
------------------------------------------------------------------------------
                         ORCA SCF GRADIENT CALCULATION
------------------------------------------------------------------------------

Gradient of the Kohn-Sham DFT energy:
Kohn-Sham wavefunction type      ... RKS
Hartree-Fock exchange scaling    ...    0.250
Number of operators              ...    1
Number of atoms                  ...   14
Basis set dimensions             ...  234
Integral neglect threshold       ... 2.5e-11
Integral primitive cutoff        ... 2.5e-12

Nuclear repulsion gradient       ... done
One Electron Gradient            ... done
Pre-screening matrix             ... done
Starting the two electron gradient:
Two electron gradient done
Exchange-correlation gradient    ... done

------------------
CARTESIAN GRADIENT
------------------

   1   C   :    0.000181144    0.000019553    0.000067184
   2   C   :    0.000130336    0.000145506   -0.000102061
   3   N   :   -0.000012968   -0.000104753   -0.000006086
   4   C   :    0.000007791   -0.000050483    0.000118747
   5   C   :   -0.000080270    0.000145702   -0.000103449
   6   O   :    0.000029329   -0.000028991    0.000003944
   7   H   :   -0.000079296   -0.000028454   -0.000012243
   8   H   :   -0.000053449    0.000021389   -0.000005000
   9   H   :   -0.000044513   -0.000049225    0.000005221
  10   H   :   -0.000012948   -0.000052688    0.000053301
  11   H   :   -0.000069902    0.000062318    0.000042312
  12   H   :   -0.000011745    0.000000120    0.000005435
  13   H   :    0.000020205   -0.000071376   -0.000024484
  14   H   :   -0.000003715   -0.000008618   -0.000042820

Norm of the cartesian gradient     ...    0.000440248
RMS gradient                       ...    0.000067932
MAX gradient                       ...    0.000181144

-------
TIMINGS
-------

Total SCF gradient time            ...       14.970 sec

One electron gradient       ....       0.053 sec  (  0.4%)
Prescreening matrices       ....       0.161 sec  (  1.1%)
Two electron gradient       ....      12.778 sec  ( 85.4%)
XC gradient                 ....       1.754 sec  ( 11.7%)
           ************************************************************
           *              Shut down parallel processing               *
           ************************************************************
------------------------------------------------------------------------------
                         ORCA GEOMETRY RELAXATION STEP
------------------------------------------------------------------------------

Reading the OPT-File                    .... done
Getting information on internals        .... done
Copying old internal coords+grads       .... done
Making the new internal coordinates     .... (new redundants).... done
Validating the new internal coordinates .... (new redundants).... done
Calculating the B-matrix                .... done
Calculating the G,G- and P matrices     .... done
Transforming gradient to internals      .... done
Projecting the internal gradient        .... done
Number of atoms                         ....  14
Number of internal coordinates          ....  80
Current Energy                          ....  -286.690746355 Eh
Current gradient norm                   ....     0.000440248 Eh/bohr
Maximum allowed component of the step   ....  0.300
Current trust radius                    ....  0.300
Evaluating the initial hessian          ....  (Almloef) done
Projecting the Hessian                  .... done
Forming the augmented Hessian           .... done
Diagonalizing the augmented Hessian     .... done
Last element of RFO vector              ....  0.999995249
Lowest eigenvalues of augmented Hessian:
 -0.000000499  0.012248880  0.012334385  0.014605483  0.034385845
Length of the computed step             ....  0.003082438
The final length of the internal step   ....  0.003082438
Converting the step to cartesian space:
 Initial RMS(Int)=    0.0003446271
Transforming coordinates:
 Iter   0:  RMS(Cart)=    0.0005874180 RMS(Int)=    0.0003446131
 Iter   1:  RMS(Cart)=    0.0000002076 RMS(Int)=    0.0000001319
 Iter   2:  RMS(Cart)=    0.0000000001 RMS(Int)=    0.0000000001
done
Storing new coordinates                 .... done

                                .--------------------.
          ----------------------|Geometry convergence|---------------------
          Item                value                 Tolerance   Converged
          -----------------------------------------------------------------
          RMS gradient        0.00003704            0.00003000      NO
          MAX gradient        0.00018282            0.00010000      NO
          RMS step            0.00034463            0.00060000      YES
          MAX step            0.00106231            0.00100000      NO
          ....................................................
          Max(Bonds)      0.0002      Max(Angles)    0.02
          Max(Dihed)        0.06      Max(Improp)    0.00
          -----------------------------------------------------------------

The optimization has not yet converged - more geometry cycles are needed


    ---------------------------------------------------------------------------
                         Redundant Internal Coordinates
                            (Angstroem and degrees)

        Definition                    Value    dE/dq     Step     New-Value
    ----------------------------------------------------------------------------
     1. B(C   1,C   0)                1.4918 -0.000057  0.0001    1.4919   
     2. B(N   2,C   1)                1.4903 -0.000060  0.0001    1.4904   
     3. B(C   3,C   1)                1.4807 -0.000043  0.0001    1.4808   
     4. B(C   3,N   2)                1.4890 -0.000053  0.0000    1.4890   
     5. B(C   4,C   3)                1.5070 -0.000183  0.0002    1.5072   
     6. B(O   5,C   4)                1.1874 -0.000017  0.0000    1.1874   
     7. B(H   6,C   0)                1.0919  0.000076 -0.0001    1.0918   
     8. B(H   7,C   0)                1.0910 -0.000011  0.0000    1.0910   
     9. B(H   8,C   0)                1.0920 -0.000058  0.0001    1.0920   
    10. B(H   9,C   1)                1.0869  0.000058 -0.0001    1.0868   
    11. B(H  10,N   2)                1.0167 -0.000087  0.0001    1.0168   
    12. B(H  11,N   2)                1.0157 -0.000006  0.0000    1.0157   
    13. B(H  12,C   3)                1.0845 -0.000076  0.0001    1.0847   
    14. B(H  13,C   4)                1.1125  0.000012 -0.0000    1.1125   
    15. A(C   1,C   0,H   6)          108.45 -0.000003    0.00    108.45   
    16. A(H   7,C   0,H   8)          109.52 -0.000026   -0.00    109.51   
    17. A(H   6,C   0,H   7)          107.92 -0.000050    0.01    107.94   
    18. A(C   1,C   0,H   7)          110.94  0.000067   -0.01    110.93   
    19. A(H   6,C   0,H   8)          107.84 -0.000014    0.00    107.84   
    20. A(C   1,C   0,H   8)          112.03  0.000021   -0.01    112.03   
    21. A(C   0,C   1,H   9)          116.79  0.000006   -0.00    116.79   
    22. A(N   2,C   1,C   3)           60.15 -0.000000   -0.00     60.15   
    23. A(C   0,C   1,N   2)          117.96  0.000031   -0.02    117.94   
    24. A(C   3,C   1,H   9)          115.70 -0.000022    0.01    115.71   
    25. A(N   2,C   1,H   9)          110.56 -0.000020    0.00    110.56   
    26. A(C   0,C   1,C   3)          122.46  0.000005    0.01    122.47   
    27. A(H  10,N   2,H  11)          114.01  0.000018   -0.00    114.01   
    28. A(C   3,N   2,H  11)          117.42  0.000001    0.00    117.42   
    29. A(C   1,N   2,H  11)          118.23  0.000003   -0.00    118.23   
    30. A(C   3,N   2,H  10)          118.11 -0.000024    0.01    118.12   
    31. A(C   1,N   2,H  10)          119.00 -0.000012   -0.00    119.00   
    32. A(C   1,N   2,C   3)           59.60  0.000005   -0.00     59.60   
    33. A(N   2,C   3,C   4)          116.22 -0.000023    0.00    116.23   
    34. A(C   1,C   3,C   4)          120.01 -0.000022    0.01    120.02   
    35. A(C   4,C   3,H  12)          115.66  0.000021   -0.01    115.65   
    36. A(N   2,C   3,H  12)          113.94  0.000007    0.00    113.95   
    37. A(C   1,C   3,H  12)          118.67  0.000006   -0.00    118.67   
    38. A(C   1,C   3,N   2)           60.24 -0.000005    0.00     60.24   
    39. A(O   5,C   4,H  13)          123.07  0.000002   -0.00    123.07   
    40. A(C   3,C   4,H  13)          115.85 -0.000087    0.01    115.87   
    41. A(C   3,C   4,O   5)          121.04  0.000085   -0.01    121.03   
    42. D(N   2,C   1,C   0,H   8)    -42.40 -0.000021    0.03    -42.37   
    43. D(H   9,C   1,C   0,H   7)    -55.19 -0.000004    0.04    -55.14   
    44. D(H   9,C   1,C   0,H   8)   -177.92 -0.000035    0.06   -177.86   
    45. D(C   3,C   1,C   0,H   7)    151.07  0.000026    0.00    151.07   
    46. D(C   3,C   1,C   0,H   6)    -90.58  0.000002    0.02    -90.56   
    47. D(H   9,C   1,C   0,H   6)     63.17 -0.000028    0.06     63.23   
    48. D(C   3,C   1,C   0,H   8)     28.33 -0.000004    0.02     28.35   
    49. D(N   2,C   1,C   0,H   7)     80.34  0.000010    0.01     80.35   
    50. D(N   2,C   1,C   0,H   6)   -161.30 -0.000014    0.03   -161.28   
    51. D(C   3,N   2,C   1,C   0)    113.33 -0.000006    0.02    113.34   
    52. D(H  10,N   2,C   1,C   0)   -139.25 -0.000028    0.04   -139.22   
    53. D(H  10,N   2,C   1,H   9)     -1.16 -0.000006    0.01     -1.16   
    54. D(C   3,N   2,C   1,H   9)   -108.58  0.000016   -0.01   -108.59   
    55. D(H  11,N   2,C   1,C   0)      6.41 -0.000008    0.02      6.43   
    56. D(H  10,N   2,C   1,C   3)    107.42 -0.000022    0.02    107.44   
    57. D(H  11,N   2,C   1,H   9)    144.50  0.000015   -0.01    144.49   
    58. D(H  11,N   2,C   1,C   3)   -106.92 -0.000002   -0.00   -106.92   
    59. D(C   4,C   3,N   2,H  11)   -140.59 -0.000014    0.01   -140.58   
    60. D(C   4,C   3,N   2,H  10)      2.24 -0.000016    0.02      2.26   
    61. D(C   4,C   3,N   2,C   1)    111.14 -0.000019    0.01    111.15   
    62. D(C   1,C   3,N   2,H  10)   -108.90  0.000003    0.01   -108.89   
    63. D(H  12,C   3,C   1,H   9)   -157.30 -0.000009    0.00   -157.30   
    64. D(H  12,C   3,C   1,N   2)    102.72  0.000004    0.01    102.73   
    65. D(H  12,C   3,C   1,C   0)     -3.28 -0.000033    0.04     -3.25   
    66. D(C   4,C   3,C   1,H   9)     -4.94  0.000007   -0.01     -4.95   
    67. D(C   1,C   3,N   2,H  11)    108.27  0.000005   -0.00    108.27   
    68. D(C   4,C   3,C   1,N   2)   -104.92  0.000021   -0.00   -104.93   
    69. D(C   4,C   3,C   1,C   0)    149.07 -0.000016    0.03    149.10   
    70. D(N   2,C   3,C   1,H   9)     99.98 -0.000013   -0.01     99.98   
    71. D(H  12,C   3,N   2,C   1)   -110.54 -0.000002    0.01   -110.53   
    72. D(N   2,C   3,C   1,C   0)   -106.01 -0.000037    0.03   -105.97   
    73. D(H  12,C   3,N   2,H  11)     -2.27  0.000002    0.00     -2.26   
    74. D(H  12,C   3,N   2,H  10)    140.56  0.000000    0.01    140.57   
    75. D(H  13,C   4,C   3,N   2)    -26.08  0.000005    0.03    -26.06   
    76. D(H  13,C   4,C   3,C   1)     43.16 -0.000018    0.04     43.19   
    77. D(O   5,C   4,C   3,H  12)     18.33 -0.000009    0.04     18.37   
    78. D(O   5,C   4,C   3,N   2)    155.93  0.000001    0.04    155.98   
    79. D(H  13,C   4,C   3,H  12)   -163.69 -0.000005    0.03   -163.66   
    80. D(O   5,C   4,C   3,C   1)   -134.83 -0.000022    0.05   -134.77   
    ----------------------------------------------------------------------------

         *************************************************************
         *                GEOMETRY OPTIMIZATION CYCLE   2            *
         *************************************************************
---------------------------------
CARTESIAN COORDINATES (ANGSTROEM)
---------------------------------
  C     -1.225836    0.398278   -2.047246
  C     -0.399912   -0.324194   -1.036499
  N      1.052822    0.000092   -0.961052
  C      0.144801    0.342500    0.168283
  C      0.339630   -0.441321    1.440829
  O     -0.000402   -0.000289    2.489536
  H     -2.276060    0.310100   -1.762153
  H     -1.107823   -0.046160   -3.036597
  H     -0.979690    1.461226   -2.093118
  H     -0.556653   -1.396318   -0.951762
  H      1.720265   -0.755272   -0.827329
  H      1.404045    0.766422   -1.527633
  H     -0.020230    1.407217    0.293242
  H      0.782457   -1.455094    1.323451

----------------------------
CARTESIAN COORDINATES (A.U.)
----------------------------
  NO LB      ZA    FRAG    MASS        X           Y           Z
   0 C     6.0000    0    12.011         -2.316494832468655          0.752637168249904         -3.868735207391881
   1 C     6.0000    0    12.011         -0.755724529972923         -0.612637518787593         -1.958698735956027
   2 N     7.0000    0    14.007          1.989546020530062          0.000173061128586         -1.816124226358766
   3 C     6.0000    0    12.011          0.273633540915580          0.647230867094852          0.318009402353270
   4 C     6.0000    0    12.011          0.641808349507336         -0.833976478268416          2.722772728467969
   5 O     8.0000    0    15.999         -0.000760599081339         -0.000547067136728          4.704540762131560
   6 H     1.0000    0     1.008         -4.301130387371593          0.586004457973359         -3.329986305597876
   7 H     1.0000    0     1.008         -2.093482239811066         -0.087230305970220         -5.738337334040494
   8 H     1.0000    0     1.008         -1.851346192856348          2.761316587814250         -3.955420096690490
   9 H     1.0000    0     1.008         -1.051922485897151         -2.638659394068147         -1.798569897729142
  10 H     1.0000    0     1.008          3.250829174702087         -1.427258097529149         -1.563424741765377
  11 H     1.0000    0     1.008          2.653260706684066          1.448327108976432         -2.886807732198053
  12 H     1.0000    0     1.008         -0.038229628549420          2.659253998155422          0.554147293339694
  13 H     1.0000    0     1.008          1.478629799829942         -2.749728780105510          2.500959852580142

--------------------------------
INTERNAL COORDINATES (ANGSTROEM)
--------------------------------
 C      0   0   0   0.000000     0.000     0.000
 C      1   0   0   1.491887     0.000     0.000
 N      2   1   0   1.490400   117.940     0.000
 C      2   1   3   1.480774   122.469    70.714
 C      4   2   1   1.507218   120.023   149.101
 O      5   4   2   1.187399   121.031   225.226
 H      1   2   3   1.091799   108.452   198.724
 H      1   2   3   1.090994   110.929    80.354
 H      1   2   3   1.092039   112.027   317.634
 H      2   1   3   1.086830   116.788   224.505
 H      3   2   1   1.016826   119.001   220.782
 H      3   2   1   1.015694   118.228     6.428
 H      4   2   1   1.084653   118.667   356.755
 H      5   4   2   1.112478   115.866    43.193

---------------------------
INTERNAL COORDINATES (A.U.)
---------------------------
 C      0   0   0   0.000000     0.000     0.000
 C      1   0   0   2.819258     0.000     0.000
 N      2   1   0   2.816447   117.940     0.000
 C      2   1   3   2.798258   122.469    70.714
 C      4   2   1   2.848230   120.023   149.101
 O      5   4   2   2.243859   121.031   225.226
 H      1   2   3   2.063200   108.452   198.724
 H      1   2   3   2.061680   110.929    80.354
 H      1   2   3   2.063655   112.027   317.634
 H      2   1   3   2.053811   116.788   224.505
 H      3   2   1   1.921523   119.001   220.782
 H      3   2   1   1.919383   118.228     6.428
 H      4   2   1   2.049697   118.667   356.755
 H      5   4   2   2.102279   115.866    43.193



           ************************************************************
           *        Program running with 8 parallel MPI-processes     *
           *              working on a common directory               *
           ************************************************************
           ************************************************************
           *              Shut down parallel processing               *
           ************************************************************


           ************************************************************
           *        Program running with 8 parallel MPI-processes     *
           *              working on a common directory               *
           ************************************************************

Diagonalization of the overlap matrix:
Smallest eigenvalue                        ... 1.323e-04
Time for diagonalization                   ...    0.012 sec
Threshold for overlap eigenvalues          ... 1.000e-08
Number of eigenvalues below threshold      ... 0
Time for construction of square roots      ...    0.005 sec
Total time needed                          ...    0.018 sec

-------------------
DFT GRID GENERATION
-------------------

General Integration Accuracy     IntAcc      ...  4.340
Radial Grid Type                 RadialGrid  ... Gauss-Chebyshev
Angular Grid (max. acc.)         AngularGrid ... Lebedev-194
Angular grid pruning method      GridPruning ... 3 (G Style)
Weight generation scheme         WeightScheme... Becke
Basis function cutoff            BFCut       ...    1.0000e-11
Integration weight cutoff        WCut        ...    1.0000e-14
Grids for H and He will be reduced by one unit

# of grid points (after initial pruning)     ...  32028 (   0.0 sec)
# of grid points (after weights+screening)   ...  29793 (   0.0 sec)
nearest neighbour list constructed           ...    0.0 sec
Grid point re-assignment to atoms done       ...    0.0 sec
Grid point division into batches done        ...    0.0 sec
Reduced shell lists constructed in    0.1 sec

Total number of grid points                  ...    29793
Total number of batches                      ...      475
Average number of points per batch           ...       62
Average number of grid points per atom       ...     2128
Average number of shells per batch           ...    79.97 (81.60%)
Average number of basis functions per batch  ...   193.84 (82.84%)
Average number of large shells per batch     ...    68.23 (85.32%)
Average number of large basis fcns per batch ...   165.90 (85.59%)
Maximum spatial batch extension              ...   2.35,  2.13,  2.21 au
Average spatial batch extension              ...   0.15,  0.14,  0.15 au

Time for grid setup =    0.127 sec

--------------
SCF ITERATIONS
--------------
ITER       Energy         Delta-E        Max-DP      RMS-DP      [F,P]     Damp
               ***  Starting incremental Fock matrix formation  ***
                      *** Initiating the SOSCF procedure ***
                      *** Re-Reading the Fockian *** 
                      *** Removing any level shift *** 
ITER      Energy       Delta-E        Grad      Rot      Max-DP    RMS-DP
  0   -286.69111775 -286.6911177452  0.000099  0.000099  0.000221  0.000004
               *** Restarting incremental Fock matrix formation ***
  1   -286.69111821  -0.0000004636  0.000048  0.000118  0.000164  0.000002
  2   -286.69111827  -0.0000000590  0.000011  0.000054  0.000046  0.000001
  3   -286.69111826   0.0000000035  0.000023  0.000024  0.000076  0.000001
  4   -286.69111827  -0.0000000081  0.000005  0.000010  0.000052  0.000000
  5   -286.69111827  -0.0000000001  0.000004  0.000005  0.000019  0.000000
                  ***Gradient check signals convergence***
              ***Rediagonalizing the Fockian in SOSCF/NRSCF***

               *****************************************************
               *                     SUCCESS                       *
               *           SCF CONVERGED AFTER   6 CYCLES          *
               *****************************************************

Setting up the final grid:

General Integration Accuracy     IntAcc      ...  5.010
Radial Grid Type                 RadialGrid  ... Gauss-Chebyshev
Angular Grid (max. acc.)         AngularGrid ... Lebedev-434
Angular grid pruning method      GridPruning ... 3 (G Style)
Weight generation scheme         WeightScheme... Becke
Basis function cutoff            BFCut       ...    1.0000e-11
Integration weight cutoff        WCut        ...    1.0000e-14
Grids for H and He will be reduced by one unit

# of grid points (after initial pruning)     ... 117760 (   0.0 sec)
# of grid points (after weights+screening)   ... 108398 (   0.1 sec)
nearest neighbour list constructed           ...    0.0 sec
Grid point re-assignment to atoms done       ...    0.0 sec
Grid point division into batches done        ...    0.7 sec
Reduced shell lists constructed in    0.9 sec

Total number of grid points                  ...   108398
Total number of batches                      ...     1700
Average number of points per batch           ...       63
Average number of grid points per atom       ...     7743
Average number of shells per batch           ...    79.49 (81.11%)
Average number of basis functions per batch  ...   193.15 (82.54%)
Average number of large shells per batch     ...    67.03 (84.33%)
Average number of large basis fcns per batch ...   163.37 (84.58%)
Maximum spatial batch extension              ...   2.63,  2.28,  2.56 au
Average spatial batch extension              ...   0.10,  0.10,  0.10 au

Final grid set up in    0.9 sec
Final integration                            ... done (   0.5 sec)
Change in XC energy                          ...     0.000371574
Integrated number of electrons               ...    45.999992120
Previous integrated no of electrons          ...    46.000371182
Total Energy       :         -286.69074670 Eh           -7801.25183 eV
  Last Energy change         ...   -7.5147e-10  Tolerance :   1.0000e-08
  Last MAX-Density change    ...    1.9053e-06  Tolerance :   1.0000e-07
             **** THE GBW FILE WAS UPDATED (0982_+.gbw) ****
             **** DENSITY FILE WAS UPDATED (0982_+.scfp.tmp) ****
             **** ENERGY FILE WAS UPDATED (0982_+.en.tmp) ****
Total SCF time: 0 days 0 hours 0 min 17 sec 
           ************************************************************
           *              Shut down parallel processing               *
           ************************************************************

-------------------------   --------------------
FINAL SINGLE POINT ENERGY      -286.690746699115
-------------------------   --------------------



           ************************************************************
           *        Program running with 8 parallel MPI-processes     *
           *              working on a common directory               *
           ************************************************************
------------------------------------------------------------------------------
                         ORCA SCF GRADIENT CALCULATION
------------------------------------------------------------------------------

Gradient of the Kohn-Sham DFT energy:
Kohn-Sham wavefunction type      ... RKS
Hartree-Fock exchange scaling    ...    0.250
Number of operators              ...    1
Number of atoms                  ...   14
Basis set dimensions             ...  234
Integral neglect threshold       ... 2.5e-11
Integral primitive cutoff        ... 2.5e-12

Nuclear repulsion gradient       ... done
One Electron Gradient            ... done
Pre-screening matrix             ... done
Starting the two electron gradient:
Two electron gradient done
Exchange-correlation gradient    ... done

------------------
CARTESIAN GRADIENT
------------------

   1   C   :    0.000084008   -0.000017080    0.000038548
   2   C   :    0.000051478    0.000047477   -0.000065472
   3   N   :   -0.000040794   -0.000028737   -0.000029250
   4   C   :   -0.000002200   -0.000032977    0.000079796
   5   C   :   -0.000007273    0.000084076   -0.000045358
   6   O   :    0.000007699   -0.000023924    0.000019812
   7   H   :   -0.000009289   -0.000021818   -0.000013723
   8   H   :   -0.000034465    0.000011824   -0.000014155
   9   H   :   -0.000022776    0.000001634    0.000001659
  10   H   :   -0.000001768    0.000000387    0.000033544
  11   H   :   -0.000006993   -0.000012644    0.000031439
  12   H   :   -0.000001675    0.000007782    0.000003542
  13   H   :   -0.000000557   -0.000000038   -0.000015946
  14   H   :   -0.000015395   -0.000015962   -0.000024437

Norm of the cartesian gradient     ...    0.000213500
RMS gradient                       ...    0.000032944
MAX gradient                       ...    0.000084076

-------
TIMINGS
-------

Total SCF gradient time            ...       15.134 sec

One electron gradient       ....       0.053 sec  (  0.4%)
Prescreening matrices       ....       0.164 sec  (  1.1%)
Two electron gradient       ....      12.903 sec  ( 85.3%)
XC gradient                 ....       1.813 sec  ( 12.0%)
           ************************************************************
           *              Shut down parallel processing               *
           ************************************************************
------------------------------------------------------------------------------
                         ORCA GEOMETRY RELAXATION STEP
------------------------------------------------------------------------------

Reading the OPT-File                    .... done
Getting information on internals        .... done
Copying old internal coords+grads       .... done
Making the new internal coordinates     .... (new redundants).... done
Validating the new internal coordinates .... (new redundants).... done
Calculating the B-matrix                .... done
Calculating the G,G- and P matrices     .... done
Transforming gradient to internals      .... done
Projecting the internal gradient        .... done
Number of atoms                         ....  14
Number of internal coordinates          ....  80
Current Energy                          ....  -286.690746699 Eh
Current gradient norm                   ....     0.000213500 Eh/bohr
Maximum allowed component of the step   ....  0.300
Current trust radius                    ....  0.300
Updating the Hessian (BFGS)             .... done
Forming the augmented Hessian           .... done
Diagonalizing the augmented Hessian     .... done
Last element of RFO vector              ....  0.999982734
Lowest eigenvalues of augmented Hessian:
 -0.000000451  0.008863569  0.013073590  0.014006286  0.032068564
Length of the computed step             ....  0.005876430
The final length of the internal step   ....  0.005876430
Converting the step to cartesian space:
 Initial RMS(Int)=    0.0006570048
Transforming coordinates:
 Iter   0:  RMS(Cart)=    0.0010982886 RMS(Int)=    0.0006570503
 Iter   1:  RMS(Cart)=    0.0000008801 RMS(Int)=    0.0000006953
 Iter   2:  RMS(Cart)=    0.0000000019 RMS(Int)=    0.0000000014
done
Storing new coordinates                 .... done

                                .--------------------.
          ----------------------|Geometry convergence|---------------------
          Item                value                 Tolerance   Converged
          -----------------------------------------------------------------
          Energy change      -0.00000034            0.00000100      YES
          RMS gradient        0.00001817            0.00003000      YES
          MAX gradient        0.00006649            0.00010000      YES
          RMS step            0.00065700            0.00060000      NO
          MAX step            0.00257333            0.00100000      NO
          ....................................................
          Max(Bonds)      0.0003      Max(Angles)    0.03
          Max(Dihed)        0.15      Max(Improp)    0.00
          -----------------------------------------------------------------

       The energies and gradients are converged
       and the convergence on bond distances, angles, dihedrals and impropers
       is acceptable.
       Convergence will therefore be signaled now


                    ***********************HURRAY********************
                    ***        THE OPTIMIZATION HAS CONVERGED     ***
                    *************************************************


    ---------------------------------------------------------------------------
                         Redundant Internal Coordinates

                          --- Optimized Parameters ---  
                            (Angstroem and degrees)

        Definition                    OldVal   dE/dq     Step     FinalVal
    ----------------------------------------------------------------------------
     1. B(C   1,C   0)                1.4919 -0.000030  0.0001    1.4920   
     2. B(N   2,C   1)                1.4904 -0.000031  0.0002    1.4906   
     3. B(C   3,C   1)                1.4808  0.000000  0.0000    1.4808   
     4. B(C   3,N   2)                1.4890 -0.000015  0.0000    1.4890   
     5. B(C   4,C   3)                1.5072 -0.000066  0.0003    1.5075   
     6. B(O   5,C   4)                1.1874  0.000005 -0.0000    1.1874   
     7. B(H   6,C   0)                1.0918  0.000008 -0.0001    1.0917   
     8. B(H   7,C   0)                1.0910  0.000003 -0.0000    1.0910   
     9. B(H   8,C   0)                1.0920 -0.000004  0.0001    1.0921   
    10. B(H   9,C   1)                1.0868  0.000002 -0.0000    1.0868   
    11. B(H  10,N   2)                1.0168  0.000008  0.0000    1.0169   
    12. B(H  11,N   2)                1.0157  0.000004 -0.0000    1.0157   
    13. B(H  12,C   3)                1.0847 -0.000002  0.0001    1.0847   
    14. B(H  13,C   4)                1.1125  0.000012 -0.0000    1.1124   
    15. A(C   1,C   0,H   6)          108.45 -0.000016    0.01    108.46   
    16. A(H   7,C   0,H   8)          109.51 -0.000019   -0.00    109.51   
    17. A(H   6,C   0,H   7)          107.94 -0.000030    0.03    107.96   
    18. A(C   1,C   0,H   7)          110.93  0.000050   -0.02    110.91   
    19. A(H   6,C   0,H   8)          107.84 -0.000005    0.01    107.85   
    20. A(C   1,C   0,H   8)          112.03  0.000017   -0.01    112.01   
    21. A(C   0,C   1,H   9)          116.79  0.000004   -0.00    116.79   
    22. A(N   2,C   1,C   3)           60.15  0.000000   -0.00     60.15   
    23. A(C   0,C   1,N   2)          117.94  0.000018   -0.03    117.91   
    24. A(C   3,C   1,H   9)          115.71 -0.000016    0.02    115.72   
    25. A(N   2,C   1,H   9)          110.56 -0.000014    0.00    110.57   
    26. A(C   0,C   1,C   3)          122.47  0.000008    0.01    122.48   
    27. A(H  10,N   2,H  11)          114.01  0.000013   -0.01    114.00   
    28. A(C   3,N   2,H  11)          117.42  0.000000    0.00    117.42   
    29. A(C   1,N   2,H  11)          118.23  0.000002   -0.00    118.22   
    30. A(C   3,N   2,H  10)          118.12 -0.000019    0.02    118.14   
    31. A(C   1,N   2,H  10)          119.00 -0.000012   -0.00    119.00   
    32. A(C   1,N   2,C   3)           59.60  0.000009   -0.00     59.60   
    33. A(N   2,C   3,C   4)          116.23 -0.000017    0.01    116.24   
    34. A(C   1,C   3,C   4)          120.02 -0.000016    0.01    120.04   
    35. A(C   4,C   3,H  12)          115.65  0.000018   -0.02    115.64   
    36. A(N   2,C   3,H  12)          113.95  0.000006    0.00    113.95   
    37. A(C   1,C   3,H  12)          118.67  0.000004   -0.01    118.66   
    38. A(C   1,C   3,N   2)           60.24 -0.000010    0.01     60.25   
    39. A(O   5,C   4,H  13)          123.07 -0.000009    0.00    123.07   
    40. A(C   3,C   4,H  13)          115.87 -0.000056    0.02    115.89   
    41. A(C   3,C   4,O   5)          121.03  0.000065   -0.02    121.01   
    42. D(N   2,C   1,C   0,H   8)    -42.37 -0.000018    0.06    -42.30   
    43. D(H   9,C   1,C   0,H   7)    -55.14  0.000001    0.07    -55.07   
    44. D(H   9,C   1,C   0,H   8)   -177.86 -0.000022    0.10   -177.76   
    45. D(C   3,C   1,C   0,H   7)    151.07  0.000017    0.01    151.08   
    46. D(C   3,C   1,C   0,H   6)    -90.56 -0.000001    0.04    -90.52   
    47. D(H   9,C   1,C   0,H   6)     63.23 -0.000016    0.10     63.33   
    48. D(C   3,C   1,C   0,H   8)     28.35 -0.000007    0.05     28.39   
    49. D(N   2,C   1,C   0,H   7)     80.35  0.000005    0.03     80.39   
    50. D(N   2,C   1,C   0,H   6)   -161.28 -0.000013    0.06   -161.22   
    51. D(C   3,N   2,C   1,C   0)    113.34  0.000003    0.02    113.36   
    52. D(H  10,N   2,C   1,C   0)   -139.22 -0.000011    0.04   -139.18   
    53. D(H  10,N   2,C   1,H   9)     -1.16 -0.000001    0.00     -1.15   
    54. D(C   3,N   2,C   1,H   9)   -108.59  0.000013   -0.02   -108.61   
    55. D(H  11,N   2,C   1,C   0)      6.43 -0.000000    0.02      6.44   
    56. D(H  10,N   2,C   1,C   3)    107.44 -0.000014    0.02    107.46   
    57. D(H  11,N   2,C   1,H   9)    144.49  0.000009   -0.02    144.47   
    58. D(H  11,N   2,C   1,C   3)   -106.92 -0.000003   -0.00   -106.92   
    59. D(C   4,C   3,N   2,H  11)   -140.58 -0.000009    0.01   -140.57   
    60. D(C   4,C   3,N   2,H  10)      2.26 -0.000011    0.02      2.28   
    61. D(C   4,C   3,N   2,C   1)    111.15 -0.000014    0.01    111.16   
    62. D(C   1,C   3,N   2,H  10)   -108.89  0.000003    0.01   -108.88   
    63. D(H  12,C   3,C   1,H   9)   -157.30 -0.000008    0.00   -157.30   
    64. D(H  12,C   3,C   1,N   2)    102.73  0.000001    0.01    102.74   
    65. D(H  12,C   3,C   1,C   0)     -3.25 -0.000018    0.05     -3.19   
    66. D(C   4,C   3,C   1,H   9)     -4.95  0.000010   -0.02     -4.97   
    67. D(C   1,C   3,N   2,H  11)    108.27  0.000006   -0.01    108.26   
    68. D(C   4,C   3,C   1,N   2)   -104.93  0.000018   -0.01   -104.94   
    69. D(C   4,C   3,C   1,C   0)    149.10 -0.000001    0.03    149.13   
    70. D(N   2,C   3,C   1,H   9)     99.98 -0.000009   -0.01     99.97   
    71. D(H  12,C   3,N   2,C   1)   -110.53  0.000001    0.01   -110.53   
    72. D(N   2,C   3,C   1,C   0)   -105.97 -0.000019    0.04   -105.93   
    73. D(H  12,C   3,N   2,H  11)     -2.26  0.000007   -0.00     -2.27   
    74. D(H  12,C   3,N   2,H  10)    140.57  0.000004    0.02    140.59   
    75. D(H  13,C   4,C   3,N   2)    -26.06 -0.000002    0.13    -25.93   
    76. D(H  13,C   4,C   3,C   1)     43.19 -0.000026    0.15     43.34   
    77. D(O   5,C   4,C   3,H  12)     18.37  0.000001    0.02     18.39   
    78. D(O   5,C   4,C   3,N   2)    155.98  0.000011    0.02    156.00   
    79. D(H  13,C   4,C   3,H  12)   -163.66 -0.000012    0.13   -163.54   
    80. D(O   5,C   4,C   3,C   1)   -134.77 -0.000013    0.04   -134.74   
    ----------------------------------------------------------------------------
                 *******************************************************
                 *** FINAL ENERGY EVALUATION AT THE STATIONARY POINT ***
                 ***               (AFTER    2 CYCLES)               ***
                 *******************************************************


           ************************************************************
           *        Program running with 8 parallel MPI-processes     *
           *              working on a common directory               *
           ************************************************************
           ************************************************************
           *              Shut down parallel processing               *
           ************************************************************


           ************************************************************
           *        Program running with 8 parallel MPI-processes     *
           *              working on a common directory               *
           ************************************************************
------------
SCF SETTINGS
------------
Hamiltonian:
 Density Functional     Method          .... DFT(GTOs)
 Exchange Functional    Exchange        .... PBE
   PBE kappa parameter  XKappa          ....  0.804000
 Correlation Functional Correlation     .... PBE
 LDA part of GGA corr.  LDAOpt          .... PW91-LDA
 Gradients option       PostSCFGGA      .... off
 Hybrid DFT is turned on
   Fraction HF Exchange ScalHFX         ....  0.250000
   Scaling of DF-GGA-X  ScalDFX         ....  0.750000
   Scaling of DF-GGA-C  ScalDFC         ....  1.000000
   Scaling of DF-LDA-C  ScalLDAC        ....  1.000000
   Perturbative correction              ....  0.000000
   NL short-range parameter             ....  6.900000


General Settings:
 Integral files         IntName         .... 0982_+
 Hartree-Fock type      HFTyp           .... RHF
 Total Charge           Charge          ....    1
 Multiplicity           Mult            ....    1
 Number of Electrons    NEL             ....   46
 Basis Dimension        Dim             ....  234
 Nuclear Repulsion      ENuc            ....    237.0271455983 Eh

Convergence Acceleration:
 DIIS                   CNVDIIS         .... on
   Start iteration      DIISMaxIt       ....    12
   Startup error        DIISStart       ....  0.200000
   # of expansion vecs  DIISMaxEq       ....     5
   Bias factor          DIISBfac        ....   1.050
   Max. coefficient     DIISMaxC        ....  10.000
 Newton-Raphson         CNVNR           .... off
 SOSCF                  CNVSOSCF        .... on
   Start iteration      SOSCFMaxIt      ....   150
   Startup grad/error   SOSCFStart      ....  0.003300
 Level Shifting         CNVShift        .... on
   Level shift para.    LevelShift      ....    0.2500
   Turn off err/grad.   ShiftErr        ....    0.0010
 Zerner damping         CNVZerner       .... off
 Static damping         CNVDamp         .... on
   Fraction old density DampFac         ....    0.7000
   Max. Damping (<1)    DampMax         ....    0.9800
   Min. Damping (>=0)   DampMin         ....    0.0000
   Turn off err/grad.   DampErr         ....    0.1000
 Fernandez-Rico         CNVRico         .... off

SCF Procedure:
 Maximum # iterations   MaxIter         ....   125
 SCF integral mode      SCFMode         .... Direct
   Integral package                     .... LIBINT
 Reset frequeny         DirectResetFreq ....    20
 Integral Threshold     Thresh          ....  2.500e-11 Eh
 Primitive CutOff       TCut            ....  2.500e-12 Eh

Convergence Tolerance:
 Convergence Check Mode ConvCheckMode   .... Total+1el-Energy
 Energy Change          TolE            ....  1.000e-08 Eh
 1-El. energy change                    ....  1.000e-05 Eh
 Orbital Gradient       TolG            ....  1.000e-05
 Orbital Rotation angle TolX            ....  1.000e-05
 DIIS Error             TolErr          ....  5.000e-07


Diagonalization of the overlap matrix:
Smallest eigenvalue                        ... 1.325e-04
Time for diagonalization                   ...    0.012 sec
Threshold for overlap eigenvalues          ... 1.000e-08
Number of eigenvalues below threshold      ... 0
Time for construction of square roots      ...    0.005 sec
Total time needed                          ...    0.018 sec

-------------------
DFT GRID GENERATION
-------------------

General Integration Accuracy     IntAcc      ...  4.340
Radial Grid Type                 RadialGrid  ... Gauss-Chebyshev
Angular Grid (max. acc.)         AngularGrid ... Lebedev-194
Angular grid pruning method      GridPruning ... 3 (G Style)
Weight generation scheme         WeightScheme... Becke
Basis function cutoff            BFCut       ...    1.0000e-11
Integration weight cutoff        WCut        ...    1.0000e-14
Grids for H and He will be reduced by one unit

# of grid points (after initial pruning)     ...  32028 (   0.0 sec)
# of grid points (after weights+screening)   ...  29793 (   0.0 sec)
nearest neighbour list constructed           ...    0.0 sec
Grid point re-assignment to atoms done       ...    0.0 sec
Grid point division into batches done        ...    0.0 sec
Reduced shell lists constructed in    0.1 sec

Total number of grid points                  ...    29793
Total number of batches                      ...      475
Average number of points per batch           ...       62
Average number of grid points per atom       ...     2128
Average number of shells per batch           ...    79.97 (81.60%)
Average number of basis functions per batch  ...   193.84 (82.84%)
Average number of large shells per batch     ...    68.21 (85.30%)
Average number of large basis fcns per batch ...   165.82 (85.55%)
Maximum spatial batch extension              ...   2.35,  2.13,  2.21 au
Average spatial batch extension              ...   0.15,  0.14,  0.15 au

Time for grid setup =    0.127 sec

--------------
SCF ITERATIONS
--------------
ITER       Energy         Delta-E        Max-DP      RMS-DP      [F,P]     Damp
               ***  Starting incremental Fock matrix formation  ***
                      *** Initiating the SOSCF procedure ***
                      *** Re-Reading the Fockian *** 
                      *** Removing any level shift *** 
ITER      Energy       Delta-E        Grad      Rot      Max-DP    RMS-DP
  0   -286.69111787 -286.6911178691  0.000098  0.000098  0.000205  0.000005
               *** Restarting incremental Fock matrix formation ***
  1   -286.69111881  -0.0000009432  0.000066  0.000278  0.000165  0.000003
  2   -286.69111896  -0.0000001525  0.000022  0.000159  0.000117  0.000002
                 **** Energy Check signals convergence ****
              ***Rediagonalizing the Fockian in SOSCF/NRSCF***

               *****************************************************
               *                     SUCCESS                       *
               *           SCF CONVERGED AFTER   3 CYCLES          *
               *****************************************************

Setting up the final grid:

General Integration Accuracy     IntAcc      ...  5.010
Radial Grid Type                 RadialGrid  ... Gauss-Chebyshev
Angular Grid (max. acc.)         AngularGrid ... Lebedev-434
Angular grid pruning method      GridPruning ... 3 (G Style)
Weight generation scheme         WeightScheme... Becke
Basis function cutoff            BFCut       ...    1.0000e-11
Integration weight cutoff        WCut        ...    1.0000e-14
Grids for H and He will be reduced by one unit

# of grid points (after initial pruning)     ... 117760 (   0.0 sec)
# of grid points (after weights+screening)   ... 108399 (   0.1 sec)
nearest neighbour list constructed           ...    0.0 sec
Grid point re-assignment to atoms done       ...    0.0 sec
Grid point division into batches done        ...    0.7 sec
Reduced shell lists constructed in    0.9 sec

Total number of grid points                  ...   108399
Total number of batches                      ...     1699
Average number of points per batch           ...       63
Average number of grid points per atom       ...     7743
Average number of shells per batch           ...    79.52 (81.14%)
Average number of basis functions per batch  ...   193.19 (82.56%)
Average number of large shells per batch     ...    67.03 (84.30%)
Average number of large basis fcns per batch ...   163.33 (84.54%)
Maximum spatial batch extension              ...   2.02,  2.28,  2.03 au
Average spatial batch extension              ...   0.10,  0.10,  0.10 au

Final grid set up in    0.9 sec
Final integration                            ... done (   0.5 sec)
Change in XC energy                          ...     0.000372200
Integrated number of electrons               ...    45.999992037
Previous integrated no of electrons          ...    46.000375494
Total Energy       :         -286.69074676 Eh           -7801.25183 eV
  Last Energy change         ...    9.4581e-09  Tolerance :   1.0000e-08
  Last MAX-Density change    ...    1.2748e-04  Tolerance :   1.0000e-07
             **** THE GBW FILE WAS UPDATED (0982_+.gbw) ****
             **** DENSITY FILE WAS UPDATED (0982_+.scfp.tmp) ****
             **** ENERGY FILE WAS UPDATED (0982_+.en.tmp) ****
Total SCF time: 0 days 0 hours 0 min 12 sec 
           ************************************************************
           *              Shut down parallel processing               *
           ************************************************************

-------------------------   --------------------
FINAL SINGLE POINT ENERGY      -286.690746755157
-------------------------   --------------------

                                *** OPTIMIZATION RUN DONE ***

                            ***************************************
                            *     ORCA property calculations      *
                            ***************************************

                                    ---------------------
                                    Active property flags
                                    ---------------------




           ************************************************************
           *        Program running with 8 parallel MPI-processes     *
           *              working on a common directory               *
           ************************************************************

-------------------------------------------------------------------------------
                               ORCA SCF HESSIAN
-------------------------------------------------------------------------------

Hessian of the Kohn-Sham DFT energy:
Kohn-Sham wavefunction type                      ... RKS
Hartree-Fock exchange scaling                    ...    0.250
Number of operators                              ...    1
Number of atoms                                  ...   14
Basis set dimensions                             ...  234
Integral neglect threshold                       ... 2.5e-11
Integral primitive cutoff                        ... 2.5e-12

Setting up DFT Hessian calculations              ... 
Electron density on the grid                     ... found on disk
Electron density on the final grid               ... found on disk
Building xc-kernel on the grid                   ... done   (      0.0 sec)
Building xc-kernel on the final grid             ... done   (      0.0 sec)
                                                     done   (      0.2 sec)

Nuclear repulsion Hessian                        ... done   (      0.0 sec)

----------------------------------------------
Forming right-hand sides of CP-SCF equations     ...
----------------------------------------------
One electron integral derivatives                ... done   (      0.2 sec)
Transforming the overlap derivative matrices     ... done   (      0.0 sec)
Making the Q(x) pseudodensities                  ... done   (      0.0 sec)
Adding the E*S(x)*S(y) terms to the Hessian      ... done   (      0.0 sec)
Calculating energy weighted overlap derivatives  ... done   (      0.0 sec)
Two electron integral derivatives                ... done   (     18.9 sec)
Exchange-correlation integral derivatives        ... done   (     25.6 sec)
tr(F(y)Q(x)) contribution to the Hessian         ... done   (      0.0 sec)
Response fock operator R(S(x))                   ... done   (     56.6 sec)
XC Response fock operator R(S(x))                ... done   (     10.7 sec)
tr(F(y)S(x)) contribution to the Hessian         ... done   (      0.0 sec)
Transforming and finalizing RHSs                 ... done   (      0.0 sec)

----------------------------------------------
Solving the CP-SCF equations                     ...
----------------------------------------------
     CP-SCF ITERATION   0: 
     CP-SCF ITERATION   1:      0.001322179
     CP-SCF ITERATION   2:      0.000176344
     CP-SCF ITERATION   3:      0.000015142
     CP-SCF ITERATION   4:      0.000002907
     CP-SCF ITERATION   5:      0.000000257
     CP-SCF ITERATION   6:      0.000000027
     CP-SCF ITERATION   7:      0.000000009

                                                 ... done   (    516.5 sec)
Forming perturbed density Hessian contributions  ... done   (      0.0 sec)
Making the perturbed densities                   ... done   (      0.0 sec)
2nd integral derivative contribs                 ... done   (    104.4 sec)
Exchange-correlation Hessian                     ... done   (     13.6 sec)
Dipol derivatives                                ... done   (      2.2 sec)

Total SCF Hessian time: 0 days 0 hours 12 min 29 sec 

Writing the Hessian file to the disk             ... done

           ************************************************************
           *              Shut down parallel processing               *
           ************************************************************

-----------------------
VIBRATIONAL FREQUENCIES
-----------------------

   0:         0.00 cm**-1
   1:         0.00 cm**-1
   2:         0.00 cm**-1
   3:         0.00 cm**-1
   4:         0.00 cm**-1
   5:         0.00 cm**-1
   6:        83.19 cm**-1
   7:       194.67 cm**-1
   8:       219.65 cm**-1
   9:       244.82 cm**-1
  10:       373.80 cm**-1
  11:       407.65 cm**-1
  12:       493.87 cm**-1
  13:       778.60 cm**-1
  14:       840.74 cm**-1
  15:       877.58 cm**-1
  16:       908.29 cm**-1
  17:       973.00 cm**-1
  18:      1010.84 cm**-1
  19:      1027.04 cm**-1
  20:      1052.44 cm**-1
  21:      1127.87 cm**-1
  22:      1146.68 cm**-1
  23:      1194.43 cm**-1
  24:      1230.35 cm**-1
  25:      1256.56 cm**-1
  26:      1328.39 cm**-1
  27:      1404.51 cm**-1
  28:      1421.11 cm**-1
  29:      1449.23 cm**-1
  30:      1471.23 cm**-1
  31:      1490.82 cm**-1
  32:      1622.64 cm**-1
  33:      1878.27 cm**-1
  34:      2908.44 cm**-1
  35:      3065.39 cm**-1
  36:      3146.69 cm**-1
  37:      3154.80 cm**-1
  38:      3176.95 cm**-1
  39:      3206.29 cm**-1
  40:      3486.37 cm**-1
  41:      3591.51 cm**-1


------------
NORMAL MODES
------------

These modes are the cartesian displacements weighted by the diagonal matrix
M(i,i)=1/sqrt(m[i]) where m[i] is the mass of the displaced atom
Thus, these vectors are normalized but *not* orthogonal

                  0          1          2          3          4          5    
      0       0.000000   0.000000   0.000000   0.000000   0.000000   0.000000
      1       0.000000   0.000000   0.000000   0.000000   0.000000   0.000000
      2       0.000000   0.000000   0.000000   0.000000   0.000000   0.000000
      3       0.000000   0.000000   0.000000   0.000000   0.000000   0.000000
      4       0.000000   0.000000   0.000000   0.000000   0.000000   0.000000
      5       0.000000   0.000000   0.000000   0.000000   0.000000   0.000000
      6       0.000000   0.000000   0.000000   0.000000   0.000000   0.000000
      7       0.000000   0.000000   0.000000   0.000000   0.000000   0.000000
      8       0.000000   0.000000   0.000000   0.000000   0.000000   0.000000
      9       0.000000   0.000000   0.000000   0.000000   0.000000   0.000000
     10       0.000000   0.000000   0.000000   0.000000   0.000000   0.000000
     11       0.000000   0.000000   0.000000   0.000000   0.000000   0.000000
     12       0.000000   0.000000   0.000000   0.000000   0.000000   0.000000
     13       0.000000   0.000000   0.000000   0.000000   0.000000   0.000000
     14       0.000000   0.000000   0.000000   0.000000   0.000000   0.000000
     15       0.000000   0.000000   0.000000   0.000000   0.000000   0.000000
     16       0.000000   0.000000   0.000000   0.000000   0.000000   0.000000
     17       0.000000   0.000000   0.000000   0.000000   0.000000   0.000000
     18       0.000000   0.000000   0.000000   0.000000   0.000000   0.000000
     19       0.000000   0.000000   0.000000   0.000000   0.000000   0.000000
     20       0.000000   0.000000   0.000000   0.000000   0.000000   0.000000
     21       0.000000   0.000000   0.000000   0.000000   0.000000   0.000000
     22       0.000000   0.000000   0.000000   0.000000   0.000000   0.000000
     23       0.000000   0.000000   0.000000   0.000000   0.000000   0.000000
     24       0.000000   0.000000   0.000000   0.000000   0.000000   0.000000
     25       0.000000   0.000000   0.000000   0.000000   0.000000   0.000000
     26       0.000000   0.000000   0.000000   0.000000   0.000000   0.000000
     27       0.000000   0.000000   0.000000   0.000000   0.000000   0.000000
     28       0.000000   0.000000   0.000000   0.000000   0.000000   0.000000
     29       0.000000   0.000000   0.000000   0.000000   0.000000   0.000000
     30       0.000000   0.000000   0.000000   0.000000   0.000000   0.000000
     31       0.000000   0.000000   0.000000   0.000000   0.000000   0.000000
     32       0.000000   0.000000   0.000000   0.000000   0.000000   0.000000
     33       0.000000   0.000000   0.000000   0.000000   0.000000   0.000000
     34       0.000000   0.000000   0.000000   0.000000   0.000000   0.000000
     35       0.000000   0.000000   0.000000   0.000000   0.000000   0.000000
     36       0.000000   0.000000   0.000000   0.000000   0.000000   0.000000
     37       0.000000   0.000000   0.000000   0.000000   0.000000   0.000000
     38       0.000000   0.000000   0.000000   0.000000   0.000000   0.000000
     39       0.000000   0.000000   0.000000   0.000000   0.000000   0.000000
     40       0.000000   0.000000   0.000000   0.000000   0.000000   0.000000
     41       0.000000   0.000000   0.000000   0.000000   0.000000   0.000000
                  6          7          8          9         10         11    
      0       0.078010  -0.036767  -0.051325   0.059388   0.018964  -0.165987
      1      -0.009545   0.075950  -0.023393   0.074933   0.030850   0.011667
      2      -0.151745   0.097951   0.071092  -0.025106   0.148335  -0.101236
      3      -0.014993   0.050551   0.077460  -0.019784   0.056614   0.045144
      4      -0.010498  -0.063804  -0.006147  -0.084904  -0.115431   0.111188
      5      -0.074746  -0.073188  -0.028667  -0.064676  -0.014774  -0.154749
      6      -0.044466   0.037095   0.066679  -0.051624   0.045752   0.100488
      7       0.063265   0.008625   0.056781   0.016690  -0.064903  -0.069613
      8       0.100288  -0.043002  -0.011936   0.015452   0.128791   0.090286
      9      -0.189920   0.010791   0.033676  -0.120777  -0.125985  -0.025434
     10      -0.044750  -0.153742  -0.026426  -0.109924   0.093971  -0.024606
     11       0.022768  -0.010364  -0.007913  -0.000814  -0.082330  -0.019789
     12      -0.172459  -0.010686  -0.105061   0.113289  -0.044582   0.027333
[...]
     28       0.043540  -0.030945   0.063989  -0.033625  -0.059882   0.182995
     29      -0.111127  -0.105355   0.153608   0.067136  -0.402789   0.635205
     30      -0.245811  -0.219575  -0.113564  -0.097714   0.008643  -0.078068
     31      -0.006768  -0.294915  -0.173271  -0.081331   0.055603  -0.006606
     32       0.263583  -0.542715  -0.349594   0.006397   0.248775   0.091981
     33       0.165627  -0.267417   0.023416   0.219129   0.053978   0.050365
     34      -0.080028  -0.305074   0.055272   0.052561  -0.134915  -0.053556
     35      -0.048344  -0.561863   0.044513   0.133508  -0.233537  -0.076702
     36       0.196669  -0.118242   0.140101  -0.616619   0.492830  -0.228443
     37       0.009939  -0.047913   0.034051  -0.153772  -0.044749  -0.208363
     38      -0.087423  -0.008111  -0.073502   0.161737   0.604064   0.347989
     39       0.550644   0.106163  -0.484075   0.102898  -0.084524  -0.105748
     40       0.158101   0.089526  -0.249046   0.121228   0.077968   0.023944
     41       0.250511  -0.040258  -0.011492  -0.079424  -0.079185   0.062456
                 24         25         26         27         28         29    
      0       0.018629   0.012643  -0.007464   0.011295  -0.077258   0.062935
      1       0.124174   0.009404  -0.030658  -0.036349   0.056430   0.011303
      2      -0.023203   0.051596  -0.010850   0.012330  -0.080410   0.054854
      3       0.027930  -0.070265   0.026126   0.052550  -0.010289  -0.119149
      4      -0.153394  -0.132113  -0.017394  -0.011658  -0.016729   0.032278
      5       0.045111  -0.117563   0.005665   0.056868   0.001519  -0.133938
      6      -0.013397   0.070511   0.012495  -0.001222   0.005823   0.025558
      7       0.074851   0.000590   0.070451   0.011104   0.008754  -0.008363
      8      -0.027386  -0.014299  -0.023072  -0.002803  -0.002649  -0.007945
      9      -0.048477   0.016592  -0.000211  -0.014218  -0.002509   0.009430
     10      -0.023814   0.156986  -0.064731   0.013643   0.006798  -0.008439
     11      -0.025325   0.076756   0.132225  -0.000474   0.043813   0.149897
     12      -0.003855  -0.002732  -0.012925  -0.018721  -0.012329  -0.010508
     13       0.004505  -0.035277  -0.009311   0.048909   0.021285   0.028631
     14      -0.002693   0.006907   0.002156  -0.047854  -0.025495  -0.032377
     15       0.000238  -0.000814  -0.002249   0.023296   0.012253   0.012386
     16      -0.002655   0.011957   0.014933  -0.044910  -0.020419  -0.019679
     17       0.001825   0.000598  -0.009193  -0.025651  -0.016457  -0.023334
     18       0.038331  -0.016397  -0.011168  -0.051962   0.117296  -0.037818
     19      -0.207634  -0.125317   0.054227   0.193671  -0.303969  -0.207620
     20      -0.037265  -0.091282  -0.000379  -0.144185   0.501176  -0.358111
     21      -0.110719   0.022060  -0.032045  -0.115489   0.410172  -0.399002
     22      -0.155078  -0.094644   0.096076   0.184734  -0.234486  -0.153666
     23       0.081543   0.091470  -0.073744  -0.104958   0.114791   0.067538
     24      -0.264242   0.042927   0.022949  -0.171706   0.401736   0.062934
     25       0.170820  -0.014484  -0.034223   0.008186  -0.047798   0.000282
     26      -0.316228  -0.097037   0.031017  -0.113121   0.227134   0.095274
     27       0.102110  -0.595083  -0.570033  -0.269074  -0.021238   0.382352
     28      -0.144725  -0.074026   0.057634   0.013990  -0.018336   0.003471
     29       0.495231  -0.186690  -0.108182  -0.228014  -0.001983   0.333241
     30      -0.258604   0.030034  -0.075301  -0.073861   0.007924   0.155252
     31      -0.121328  -0.105684   0.027001  -0.046901   0.007492   0.107715
     32       0.031468  -0.352110   0.139590   0.003473  -0.029975   0.017715
     33       0.286257   0.198306   0.164870  -0.011994   0.041043   0.054355
     34       0.003725   0.114890  -0.063113   0.050877  -0.022253  -0.108541
     35       0.057489   0.204824  -0.123534   0.043621  -0.025248  -0.130270
     36       0.454774  -0.195523   0.236091   0.058277   0.017750  -0.050570
     37       0.037374   0.107317   0.043850   0.034539   0.033870   0.038082
     38       0.067878   0.435590  -0.595275  -0.074559  -0.143892  -0.340126
     39       0.003273   0.068233   0.060853  -0.085224  -0.030094  -0.036564
     40      -0.002880   0.005877   0.057390  -0.053891  -0.019756  -0.011072
     41       0.044271  -0.026431  -0.342445   0.815148   0.377784   0.337517
                 30         31         32         33         34         35    
      0      -0.018200   0.007408  -0.000242   0.000531   0.000100   0.025615
      1       0.002487  -0.044918   0.002984   0.001069  -0.000140  -0.030186
      2       0.044409   0.029494   0.003798   0.003994  -0.000222   0.032044
      3      -0.012945  -0.071554  -0.017735  -0.002259  -0.000322  -0.000342
      4       0.013269  -0.014126  -0.008067  -0.003123   0.000178   0.001815
      5       0.026762  -0.065151  -0.031983  -0.017640   0.000060  -0.000997
      6      -0.001888   0.013981   0.077963   0.000591  -0.000226  -0.000489
      7      -0.000497  -0.000919   0.000869   0.001226   0.000661  -0.000130
      8      -0.001455  -0.004562  -0.032889  -0.012801  -0.000763  -0.000006
      9      -0.000231   0.004053   0.011322   0.012760  -0.000249  -0.000280
     10      -0.006661   0.003193   0.009955  -0.017992  -0.001444   0.000296
     11      -0.009222   0.053477   0.025936  -0.010847   0.002132  -0.000225
     12       0.000323  -0.001896  -0.000569  -0.193307  -0.034165  -0.000020
     13       0.001510   0.003990  -0.004591   0.242358   0.077485   0.000177
     14       0.001021  -0.007431   0.001524   0.643098   0.007931   0.000107
     15      -0.000567   0.001644  -0.000240   0.146070   0.000458   0.000006
     16       0.000289  -0.001853   0.002134  -0.188448  -0.000614  -0.000021
     17       0.001020  -0.003974  -0.001009  -0.454973  -0.000906  -0.000032
     18       0.019530   0.078762   0.003965   0.001470   0.000634  -0.511385
     19      -0.482080   0.348100  -0.023864   0.002654   0.000296  -0.047102
     20      -0.000161   0.387888   0.011216   0.004228   0.000279   0.143259
     21      -0.098129   0.492868   0.017026   0.016580  -0.000656   0.063005
     22       0.492093   0.312986  -0.015866  -0.006265   0.000749  -0.227953
     23      -0.201104  -0.066346   0.013223   0.009824  -0.000803  -0.489937
     24       0.445076  -0.327676   0.018830  -0.005666  -0.000073   0.151513
     25      -0.130763   0.029652   0.001110   0.000306  -0.002215   0.627267
     26      -0.502259  -0.407922  -0.004365  -0.006822   0.000934  -0.022442
     27       0.038803   0.187190   0.021483  -0.021698  -0.002155  -0.001334
     28       0.001372  -0.036321  -0.008425  -0.010344   0.001904  -0.014449
     29      -0.040569   0.181545   0.046817   0.016438  -0.004786   0.001464
     30       0.001417   0.054895  -0.446181   0.016600   0.013166   0.001074
     31       0.005050   0.031770  -0.363719   0.003756  -0.005392   0.000154
     32       0.006590  -0.012484   0.402424   0.004298  -0.007839  -0.000207
     33      -0.007720   0.043399  -0.600822  -0.002193   0.003452   0.004119
     34      -0.003222  -0.042786   0.356135   0.007870  -0.000338   0.001441
     35      -0.004749  -0.043717   0.055186  -0.006610  -0.004809  -0.000523
     36       0.007622  -0.009931  -0.018672  -0.014126  -0.002026   0.001699
     37      -0.009123   0.015486   0.013805  -0.035643   0.009481  -0.003496
     38       0.014552  -0.074744  -0.029537   0.189557   0.003893   0.000953
     39      -0.001341  -0.001226   0.010904  -0.145681   0.396236   0.000441
     40       0.002636   0.001251  -0.008473   0.362682  -0.910456  -0.001299
     41      -0.018599   0.038436  -0.013289  -0.182786  -0.079847  -0.000509
                 36         37         38         39         40         41    
      0      -0.060676  -0.046253   0.009183   0.000652   0.000607  -0.000137
      1      -0.066582   0.039622   0.021988   0.001727   0.000411   0.000342
      2       0.000215   0.069398   0.010130   0.000479  -0.000281   0.000008
      3       0.001603  -0.002688   0.012556  -0.000184  -0.000024  -0.000386
      4       0.020999  -0.011148   0.082168   0.005526   0.000688  -0.000098
      5      -0.002248   0.001631  -0.006631  -0.001835   0.001290  -0.000141
      6       0.000419   0.000838  -0.001011   0.001387  -0.050893   0.010786
      7      -0.000468   0.000045  -0.001438  -0.001982   0.007007  -0.077244
      8       0.000666   0.000085   0.001031  -0.000179   0.017851   0.037915
      9       0.000169  -0.000562   0.001211  -0.013751  -0.000797   0.000113
     10      -0.000023   0.000387  -0.007947   0.085868  -0.000891   0.000053
     11      -0.000068  -0.000600  -0.001587   0.009836  -0.000887  -0.000895
     12       0.000032  -0.000059   0.000382   0.000053   0.001010   0.000008
     13       0.000193  -0.000170   0.000041  -0.000077  -0.001491   0.000674
     14      -0.000217   0.000122  -0.000956   0.001410  -0.000348   0.000377
     15      -0.000035   0.000035  -0.000127   0.000073  -0.000195   0.000070
     16       0.000015  -0.000006   0.000119  -0.000041   0.000287  -0.000196
     17       0.000106  -0.000072   0.000383  -0.000261  -0.000005  -0.000305
     18       0.611739   0.530135  -0.074834  -0.006431   0.000190  -0.000672
     19       0.037746   0.053465  -0.001249  -0.000616  -0.001631  -0.000281
     20      -0.170523  -0.132070   0.019917   0.001958   0.001762   0.000310
     21      -0.037193   0.082364   0.017438   0.001048  -0.000627   0.000165
     22       0.077754  -0.325530  -0.060699  -0.003732   0.001057   0.000561
     23       0.198350  -0.717977  -0.142340  -0.006847   0.000863   0.000444
     24       0.154103  -0.058254  -0.047143  -0.002758  -0.001060  -0.000939
     25       0.673987  -0.199764  -0.211300  -0.019696  -0.002857  -0.002398
     26      -0.024995   0.018851   0.012700   0.002695  -0.001060  -0.001134
     27      -0.037593   0.021398  -0.134382  -0.011082   0.004713   0.004782
     28      -0.244128   0.132329  -0.940739  -0.077993  -0.001824   0.008277
     29       0.016160  -0.010350   0.074453   0.000015   0.000422  -0.001443
     30       0.001689   0.001791  -0.001327   0.001906   0.494251  -0.409692
     31       0.001855  -0.001258   0.007805  -0.001874  -0.581054   0.470290
     32       0.000258   0.000254   0.002383  -0.006930   0.107066  -0.083398
     33       0.003222   0.000511  -0.005138   0.001674   0.205818   0.260886
     34       0.002336   0.000827   0.000817   0.009681   0.486449   0.586422
     35      -0.002832   0.001079  -0.005731  -0.000475  -0.352817  -0.429379
     36      -0.000318   0.000670  -0.016930   0.147957   0.002414  -0.003022
     37      -0.000775  -0.003301   0.077409  -0.975923   0.005400   0.006277
     38       0.000096  -0.000467   0.004377  -0.104740  -0.004184   0.002297
     39       0.000584  -0.000249   0.000357   0.004891  -0.004880   0.002288
     40      -0.001391   0.000820  -0.000845  -0.010336   0.007828  -0.004243
     41       0.000171  -0.000021   0.002423   0.003103   0.002665  -0.001948


-----------
IR SPECTRUM
-----------

 Mode    freq (cm**-1)   T**2         TX         TY         TZ
-------------------------------------------------------------------
   6:        83.19    8.562624  ( -2.903780  -0.331946   0.143162)
   7:       194.67    5.585410  (  0.879308  -2.185538   0.188810)
   8:       219.65    0.175100  (  0.029040  -0.292774   0.297557)
   9:       244.82    0.431737  (  0.360426  -0.071232   0.544753)
  10:       373.80    3.536845  ( -1.069466   1.470844   0.479277)
  11:       407.65    1.225837  (  0.891151   0.224856   0.617355)
  12:       493.87    9.981088  (  0.390968  -1.249321   2.875314)
  13:       778.60    4.389825  (  0.833980  -1.381086   1.336751)
  14:       840.74   10.319857  (  3.020495  -1.016239  -0.404630)
  15:       877.58   34.755284  ( -2.802673  -1.970220   4.797764)
  16:       908.29    9.437111  ( -0.346486   2.875608  -1.023688)
  17:       973.00   14.096455  (  1.652076  -0.506288   3.333283)
  18:      1010.84    4.363137  (  0.847399  -1.290777   1.406750)
  19:      1027.04  100.133577  ( -3.271753  -3.798065  -8.660480)
  20:      1052.44   17.416550  ( -3.375089  -1.774995   1.695499)
  21:      1127.87    5.717351  ( -1.891081   1.453864  -0.165659)
  22:      1146.68    8.186684  ( -0.653914   1.619917  -2.266042)
  23:      1194.43    4.870538  ( -0.259965   1.037531  -1.930411)
  24:      1230.35    4.576838  (  1.029220  -0.542721   1.795271)
  25:      1256.56    6.277048  ( -0.634357  -1.392080  -1.984125)
  26:      1328.39    0.521619  ( -0.003323  -0.707065   0.147197)
  27:      1404.51    1.435755  (  0.002015   0.841386  -0.853124)
  28:      1421.11    5.968931  (  1.572762  -1.842271  -0.318420)
  29:      1449.23   25.202899  ( -3.113241  -0.167422  -3.934794)
  30:      1471.23    8.373187  (  2.020144  -0.966219  -1.832655)
  31:      1490.82   16.559349  (  0.995033   3.810462  -1.024519)
  32:      1622.64   74.863748  ( -8.231637   0.122380   2.662504)
  33:      1878.27  162.024939  ( -1.983909   2.994399  12.211577)
  34:      2908.44   41.564001  ( -2.907526   5.630512   1.186437)
  35:      3065.39    2.535289  ( -1.458139  -0.540620  -0.341832)
  36:      3146.69    1.111953  (  0.322928  -1.002496  -0.051690)
  37:      3154.80    1.304062  (  1.110322   0.264027   0.039212)
  38:      3176.95    1.107227  ( -0.890614  -0.559856   0.024385)
  39:      3206.29    8.242398  (  0.417398  -2.752725  -0.700487)
  40:      3486.37  104.231508  (  9.558201  -0.531765  -3.548172)
  41:      3591.51  129.346378  ( -0.725031   9.691208  -5.907723)

The first frequency considered to be a vibration is 6
The total number of vibrations considered is 36


--------------------------
THERMOCHEMISTRY AT 298.15K
--------------------------

Temperature         ... 298.15 K
Pressure            ... 1.00 atm
Total Mass          ... 86.11 AMU

Throughout the following assumptions are being made:
  (1) The electronic state is orbitally nondegenerate
  (2) There are no thermally accessible electronically excited states
  (3) Hindered rotations indicated by low frequency modes) are not
      treated as such but are treated as vibrations and this may
      case some error
  (4) All equations used are the standard statistical mechanics
      equations for an ideal gas
  (5) All vibrations are strinctly harmonic


------------
INNER ENERGY
------------

The inner energy is: U= E(el) + E(ZPE) + E(vib) + E(rot) + E(trans)
    E(el)   - is the total energy from the electronic structure calculation
              = E(kin-el) + E(nuc-el) + E(el-el) + E(nuc-nuc)
    E(ZPE)  - the the zero temperature vibrational energy from the frequency calculation
    E(vib)  - the the finite temperature correction to E(ZPE) due to population
              of excietd vibrational states
    E(rot)  - is the rotational thermal energy
    E(trans)- is the translational thermal energy

Summary of contributions to the inner energy U:
Electronic energy                ...   -286.69074676 Eh
Zero point energy                ...      0.12130042 Eh      76.12 kcal/mol
Thermal vibrational correction   ...      0.00376330 Eh       2.36 kcal/mol
Thermal rotational correction    ...      0.00141627 Eh       0.89 kcal/mol
Thermal translational correction ...      0.00141627 Eh       0.89 kcal/mol
-----------------------------------------------------------------------
Total thermal energy                   -286.56285049 Eh


Summary of corrections to the electronic energy:
(perhaps to be used in another calculation)
Total thermal correction                  0.00659584 Eh       4.14 kcal/mol
Non-thermal (ZPE) correction              0.12130042 Eh      76.12 kcal/mol
-----------------------------------------------------------------------
Total correction                          0.12789627 Eh      80.26 kcal/mol


--------
ENTHALPY
--------

The enthalpy is H = U + kB*T
                kB is Boltzmann's constant
Total free energy                 ...   -286.56285049 Eh 
Thermal Enthalpy correction       ...      0.00094421 Eh       0.59 kcal/mol
-----------------------------------------------------------------------
Total Enthalpy                    ...   -286.56190628 Eh


-------
ENTROPY
-------

The entropy contributions are T*S = T*(S(el)+S(vib)+S(rot)+S(trans)
     S(el)   - electronic entropy
     S(vib)  - vibrational entropy
     S(rot)  - rotational entropy
     S(trans)- translational entropy
The entropies will be listed as mutliplied by the temperature to get
units of energy

Electronic entropy                ...      0.00000000 Eh      0.00 kcal/mol
Vibrational entropy               ...      0.00654220 Eh      4.11 kcal/mol
Rotational entropy                ...      0.01164702 Eh      7.31 kcal/mol
Translational entropy             ...      0.01865951 Eh     11.71 kcal/mol
-----------------------------------------------------------------------
Final entropy term                ...      0.03684873 Eh     23.12 kcal/mol


CAUTION: The rotational entropy is not quite correctly treated here
         because it includes a symmetry number that is not yet correctly
         implemented in ORCA!
For a nonlinear molecule the correct rotational entropy is:
    S(rot) = R*(ln(qrot/sn)+1.5)
    R    = 8.31441 J/mol/K = 1.987191683e-3 kcal/mol/K
    qrot = 152389.1908450
    sn is the rotational symmetry number. We have assumed 3 here
       if it is different for your molecule then you should correct
       the printed rotational entropy by manually evaluating the equation
       as given above

For convenience we print out the resulting values for sn=1 - 12:
 sn= 1  qrot/sn=  152389.1908 T*S(rot)=     7.96 kcal/mol T*S(tot)=    23.77 kcal/mol
 sn= 2  qrot/sn=   76194.5954 T*S(rot)=     7.55 kcal/mol T*S(tot)=    23.36 kcal/mol
 sn= 3  qrot/sn=   50796.3969 T*S(rot)=     7.31 kcal/mol T*S(tot)=    23.12 kcal/mol
 sn= 4  qrot/sn=   38097.2977 T*S(rot)=     7.14 kcal/mol T*S(tot)=    22.95 kcal/mol
 sn= 5  qrot/sn=   30477.8382 T*S(rot)=     7.01 kcal/mol T*S(tot)=    22.82 kcal/mol
 sn= 6  qrot/sn=   25398.1985 T*S(rot)=     6.90 kcal/mol T*S(tot)=    22.71 kcal/mol
 sn= 7  qrot/sn=   21769.8844 T*S(rot)=     6.81 kcal/mol T*S(tot)=    22.62 kcal/mol
 sn= 8  qrot/sn=   19048.6489 T*S(rot)=     6.73 kcal/mol T*S(tot)=    22.54 kcal/mol
 sn= 9  qrot/sn=   16932.1323 T*S(rot)=     6.66 kcal/mol T*S(tot)=    22.47 kcal/mol
 sn=10  qrot/sn=   15238.9191 T*S(rot)=     6.60 kcal/mol T*S(tot)=    22.41 kcal/mol
 sn=11  qrot/sn=   13853.5628 T*S(rot)=     6.54 kcal/mol T*S(tot)=    22.35 kcal/mol
 sn=12  qrot/sn=   12699.0992 T*S(rot)=     6.49 kcal/mol T*S(tot)=    22.30 kcal/mol


-------------------
GIBBS FREE ENTHALPY
-------------------

The Gibbs free enthalpy is G = H - T*S

Total enthalpy                    ...   -286.56190628 Eh 
Total entropy correction          ...     -0.03684873 Eh    -23.12 kcal/mol
-----------------------------------------------------------------------
Final Gibbs free enthalpy         ...   -286.59875501 Eh

For completeness - the Gibbs free enthalpy minus the electronic energy
G-E(el)                           ...      0.09199174 Eh     57.73 kcal/mol


Timings for individual modules:

Sum of individual times         ...      858.613 sec (=  14.310 min)
GTO integral calculation        ...        4.917 sec (=   0.082 min)   0.6 %
SCF iterations                  ...       69.694 sec (=   1.162 min)   8.1 %
SCF Gradient evaluation         ...       32.690 sec (=   0.545 min)   3.8 %
Geometry relaxation             ...        0.120 sec (=   0.002 min)   0.0 %
Analytical frequency calculation...      751.192 sec (=  12.520 min)  87.5 %
                             ****ORCA TERMINATED NORMALLY****
TOTAL RUN TIME: 0 days 0 hours 14 minutes 20 seconds 255 msec
