
                                 *****************
                                 * O   R   C   A *
                                 *****************

           --- An Ab Initio, DFT and Semiempirical electronic structure package ---

                  #######################################################
                  #                        -***-                        #
                  #  Department of molecular theory and spectroscopy    #
                  #              Directorship: Frank Neese              #
                  # Max Planck Institute for Chemical Energy Conversion #
                  #                  D-45470 Muelheim/Ruhr              #
                  #                       Germany                       #
                  #                                                     #
                  #                  All rights reserved                #
                  #                        -***-                        #
                  #######################################################


                         Program Version 3.0.3 - RELEASE   -


 With contributions from (in alphabetic order):
   Ute Becker             : Parallelization
   Dmytro Bykov           : SCF Hessian
   Dmitry Ganyushin       : Spin-Orbit,Spin-Spin,Magnetic field MRCI
   Andreas Hansen         : Spin unrestricted coupled pair/coupled cluster methods
   Dimitrios Liakos       : Extrapolation schemes; parallel MDCI
   Robert Izsak           : Overlap fitted RIJCOSX, COSX-SCS-MP3
   Christian Kollmar      : KDIIS, OOCD, Brueckner-CCSD(T), CCSD density
   Simone Kossmann        : Meta GGA functionals, TD-DFT gradient, OOMP2, MP2 Hessian
   Taras Petrenko         : DFT Hessian,TD-DFT gradient, ASA and ECA modules, normal mode analysis, Resonance Raman, ABS, FL, XAS/XES, NRVS
   Christoph Reimann      : Effective Core Potentials
   Michael Roemelt        : Restricted open shell CIS
   Christoph Riplinger    : Improved optimizer, TS searches, QM/MM, DLPNO-CCSD
   Barbara Sandhoefer     : DKH picture change effects
   Igor Schapiro          : Molecular dynamics
   Kantharuban Sivalingam : CASSCF convergence, NEVPT2
   Boris Wezisla          : Elementary symmetry handling
   Frank Wennmohs         : Technical directorship


 We gratefully acknowledge several colleagues who have allowed us to
 interface, adapt or use parts of their codes:
   Stefan Grimme, W. Hujo, H. Kruse, T. Risthaus : VdW corrections, initial TS optimization,
                                                   DFT functionals, gCP
   Ed Valeev                                     : LibInt (2-el integral package), F12 methods
   Garnet Chan, S. Sharma, R. Olivares           : DMRG
   Ulf Ekstrom                                   : XCFun DFT Library
   Mihaly Kallay                                 : mrcc  (arbitrary order and MRCC methods)
   Andreas Klamt, Michael Diedenhofen            : otool_cosmo (COSMO solvation model)
   Frank Weinhold                                : gennbo (NPA and NBO analysis)
   Christopher J. Cramer and Donald G. Truhlar   : smd solvation model


 Your calculation uses the libint2 library for the computation of 2-el integrals
 For citations please refer to: http://libint.valeyev.net

 This ORCA versions uses:
   CBLAS   interface :  Fast vector & matrix operations
   LAPACKE interface :  Fast linear algebra routines
   SCALAPACK package :  Parallel linear algebra routines


Your calculation utilizes the basis: Ahlrichs-TZV
Cite in your paper:
H - Kr: A. Schaefer, H. Horn and R. Ahlrichs, J. Chem. Phys. 97, 2571 (1992).

The def2-TZV basis will be loaded
Cite in your paper:
 	F. Weigend, R. Ahlrichs, Phys. Chem. Chem. Phys. 2005, 7, 3297.

================================================================================
                                        WARNINGS
                       Please study these warnings very carefully!
================================================================================
Now building the actual basis set
WARNING: Geometry optimizations can change the point-group symmetry!

WARNING: Geometry Optimization
  ===> : Switching off AutoStart
         For restart on a previous wavefunction, please use MOREAD


INFO   : the flag for use of LIBINT has been found!

================================================================================
                                       INPUT FILE
================================================================================
NAME = 1019_+.inp
|  1> ! NORI PBE0 def2-TZVP UseSym TightOPT Freq TightSCF Grid3 FinalGrid5 XYZFile
|  2> % pal
|  3>     nprocs 8
|  4> end
|  5> %method
|  6>     SymThresh 5.0e-2
|  7> end
|  8> % geom 
|  9>     MaxIter 10
| 10> end 
| 11> % maxcore 2000
| 12> % output
| 13>     printlevel mini
| 14>     print[ P_Basis ] 0
| 15>     print[ P_SCFInfo ] 1
| 16>     print[ P_SCFIterInfo ] 1
| 17>     print[ P_OrbEn ] 0
| 18>     print[ P_Cartesian ] 0
| 19> end
| 20> % elprop
| 21>     Dipole false
| 22> end
| 23> *xyz 1 1
| 24>  C        1.1698005343    -0.1893090176     0.1362734108 
| 25>  C        2.6570159143    -0.0154091386    -0.1080882810 
| 26>  C        3.0158179014     1.4419197071    -0.3607206804 
| 27>  O        3.4271493389    -0.5454917413     0.9715321678 
| 28>  C        3.0811926620    -0.9195981094    -1.2667835889 
| 29>  N        4.5731172880    -1.0598733202    -1.2298644652 
| 30>  H        0.5882185017     0.0996015935    -0.7422296385 
| 31>  H        0.8489132963     0.4476609307     0.9633762734 
| 32>  H        0.9367351694    -1.2247983974     0.3888913104 
| 33>  H        2.4713378594     1.8392700324    -1.2194846576 
| 34>  H        4.0877304511     1.5871011431    -0.5270284965 
| 35>  H        2.7473554818     2.0482079431     0.5068982704 
| 36>  H        3.2286856905    -0.0822207716     1.7910235548 
| 37>  H        2.6749614630    -1.9216770843    -1.1300378558 
| 38>  H        2.7828990000    -0.5307545821    -2.2387414905 
| 39>  H        4.8131285703    -1.1307536117    -0.2271122038 
| 40>  H        5.0470180744    -0.2413556303    -1.6117763391 
| 41>  H        4.9038228029    -1.8840499454    -1.7302572902 
| 42> *
| 43> 
| 44>                          ****END OF INPUT****
================================================================================

The point group is C1 - hence turning off symmetry
If this is a round-off problem, please increase the symmetry
        detection tolerance (%method SymThresh)


                       *****************************
                       * Geometry Optimization Run *
                       *****************************

Geometry optimization settings:
Update method            Update   .... BFGS
Choice of coordinates    CoordSys .... Redundant Internals
Initial Hessian          InHess   .... Almoef's Model

Convergence Tolerances:
Energy Change            TolE     ....  1.0000e-06 Eh
Max. Gradient            TolMAXG  ....  1.0000e-04 Eh/bohr
RMS Gradient             TolRMSG  ....  3.0000e-05 Eh/bohr
Max. Displacement        TolMAXD  ....  1.0000e-03 bohr
RMS Displacement         TolRMSD  ....  6.0000e-04 bohr

------------------------------------------------------------------------------
                        ORCA OPTIMIZATION COORDINATE SETUP
------------------------------------------------------------------------------

The optimization will be done in new redundant internal coordinates
Making redundant internal coordinates   ...  (new redundants) done
Evaluating the initial hessian          ...  (Almloef) done
Evaluating the coordinates              ...  done
Calculating the B-matrix                .... done
Calculating the G-matrix                .... done
Diagonalizing the G-matrix              .... done
The first mode is                       ....   39
The number of degrees of freedom        ....   48

    -----------------------------------------------------------------
                    Redundant Internal Coordinates


    -----------------------------------------------------------------
         Definition                    Initial Value    Approx d2E/dq
    -----------------------------------------------------------------
      1. B(C   1,C   0)                  1.5172         0.391623   
      2. B(C   2,C   1)                  1.5220         0.384770   
      3. B(O   3,C   1)                  1.4282         0.486380   
      4. B(C   4,C   1)                  1.5297         0.373952   
      5. B(N   5,C   4)                  1.4990         0.375006   
      6. B(H   6,C   0)                  1.0925         0.356857   
      7. B(H   7,C   0)                  1.0922         0.357263   
      8. B(H   8,C   0)                  1.0910         0.358724   
      9. B(H   9,C   2)                  1.0917         0.357851   
     10. B(H  10,C   2)                  1.0944         0.354314   
     11. B(H  11,C   2)                  1.0920         0.357490   
     12. B(H  12,O   3)                  0.9621         0.516022   
     13. B(H  13,C   4)                  1.0899         0.360230   
     14. B(H  14,C   4)                  1.0885         0.362060   
     15. B(H  15,N   5)                  1.0335         0.396906   
     16. B(H  16,N   5)                  1.0200         0.417093   
     17. B(H  17,N   5)                  1.0193         0.418134   
     18. A(C   1,C   0,H   8)          110.8229         0.326639   
     19. A(H   6,C   0,H   8)          108.8725         0.290252   
     20. A(C   1,C   0,H   6)          111.2242         0.326359   
     21. A(H   7,C   0,H   8)          108.3860         0.290304   
     22. A(C   1,C   0,H   7)          110.0683         0.326420   
     23. A(H   6,C   0,H   7)          107.3580         0.290066   
     24. A(C   2,C   1,O   3)          110.7171         0.379776   
     25. A(O   3,C   1,C   4)          101.7523         0.377906   
     26. A(C   0,C   1,O   3)          111.3646         0.380941   
     27. A(C   2,C   1,C   4)          112.0167         0.365254   
     28. A(C   0,C   1,C   2)          111.5669         0.368156   
     29. A(C   0,C   1,C   4)          109.0302         0.366360   
     30. A(C   1,C   2,H  10)          112.5290         0.325030   
     31. A(C   1,C   2,H   9)          111.1929         0.325561   
     32. A(H   9,C   2,H  11)          107.4759         0.290222   
     33. A(C   1,C   2,H  11)          109.9863         0.325507   
     34. A(H   9,C   2,H  10)          108.7034         0.289816   
     35. A(H  10,C   2,H  11)          106.7311         0.289770   
     36. A(C   1,O   3,H  12)          110.7290         0.354631   
     37. A(C   1,C   4,N   5)          108.2188         0.361392   
     38. A(H  13,C   4,H  14)          109.7751         0.291104   
     39. A(N   5,C   4,H  14)          109.1578         0.322872   
     40. A(C   1,C   4,H  14)          112.9052         0.324662   
     41. A(N   5,C   4,H  13)          106.3702         0.322604   
     42. A(C   1,C   4,H  13)          110.1857         0.324392   
     43. A(H  15,N   5,H  17)          110.2124         0.297487   
     44. A(C   4,N   5,H  17)          112.7361         0.327804   
     45. A(H  15,N   5,H  16)          108.0844         0.297369   
     46. A(C   4,N   5,H  16)          112.2165         0.327669   
     47. A(H  16,N   5,H  17)          108.3181         0.299841   
     48. A(C   4,N   5,H  15)          105.1564         0.325004   
     49. D(O   3,C   1,C   0,H   6)   -172.7842         0.012189   
     50. D(C   2,C   1,C   0,H   6)     62.9472         0.012189   
     51. D(C   2,C   1,C   0,H   7)    -55.9091         0.012189   
     52. D(O   3,C   1,C   0,H   8)    -51.5224         0.012189   
     53. D(O   3,C   1,C   0,H   7)     68.3594         0.012189   
     54. D(C   2,C   1,C   0,H   8)   -175.7909         0.012189   
     55. D(C   4,C   1,C   0,H   7)    179.8458         0.012189   
     56. D(C   4,C   1,C   0,H   8)     59.9641         0.012189   
     57. D(C   4,C   1,C   0,H   6)    -61.2978         0.012189   
     58. D(H  10,C   2,C   1,C   0)    179.3038         0.011785   
     59. D(H  10,C   2,C   1,O   3)     54.6721         0.011785   
     60. D(H   9,C   2,C   1,C   4)     64.0734         0.011785   
     61. D(H   9,C   2,C   1,O   3)    176.8927         0.011785   
     62. D(H   9,C   2,C   1,C   0)    -58.4757         0.011785   
     63. D(H  10,C   2,C   1,C   4)    -58.1472         0.011785   
     64. D(H  11,C   2,C   1,C   4)   -176.9962         0.011785   
     65. D(H  11,C   2,C   1,O   3)    -64.1769         0.011785   
     66. D(H  11,C   2,C   1,C   0)     60.4547         0.011785   
     67. D(H  12,O   3,C   1,C   4)   -177.7229         0.018673   
     68. D(H  12,O   3,C   1,C   2)     63.0641         0.018673   
     69. D(H  12,O   3,C   1,C   0)    -61.6824         0.018673   
     70. D(H  14,C   4,C   1,O   3)   -166.2728         0.011165   
     71. D(H  14,C   4,C   1,C   2)    -47.9866         0.011165   
     72. D(H  14,C   4,C   1,C   0)     75.9929         0.011165   
     73. D(H  13,C   4,C   1,O   3)     70.5888         0.011165   
     74. D(H  13,C   4,C   1,C   2)   -171.1251         0.011165   
     75. D(H  13,C   4,C   1,C   0)    -47.1455         0.011165   
     76. D(N   5,C   4,C   1,O   3)    -45.3330         0.011165   
     77. D(N   5,C   4,C   1,C   2)     72.9531         0.011165   
     78. D(N   5,C   4,C   1,C   0)   -163.0673         0.011165   
     79. D(H  15,N   5,C   4,C   1)     39.0782         0.012888   
     80. D(H  17,N   5,C   4,H  13)     40.8058         0.012888   
     81. D(H  17,N   5,C   4,C   1)    159.1854         0.012888   
     82. D(H  16,N   5,C   4,H  14)     45.0564         0.012888   
     83. D(H  16,N   5,C   4,H  13)    163.4385         0.012888   
     84. D(H  16,N   5,C   4,C   1)    -78.1818         0.012888   
     85. D(H  15,N   5,C   4,H  14)    162.3164         0.012888   
     86. D(H  17,N   5,C   4,H  14)    -77.5763         0.012888   
     87. D(H  15,N   5,C   4,H  13)    -79.3015         0.012888   
    -----------------------------------------------------------------

Number of atoms                         .... 18
Number of degrees of freedom            .... 87

         *************************************************************
         *                GEOMETRY OPTIMIZATION CYCLE   1            *
         *************************************************************


           ************************************************************
           *        Program running with 8 parallel MPI-processes     *
           *              working on a common directory               *
           ************************************************************
           ************************************************************
           *              Shut down parallel processing               *
           ************************************************************


           ************************************************************
           *        Program running with 8 parallel MPI-processes     *
           *              working on a common directory               *
           ************************************************************
------------
SCF SETTINGS
------------
Hamiltonian:
 Density Functional     Method          .... DFT(GTOs)
 Exchange Functional    Exchange        .... PBE
   PBE kappa parameter  XKappa          ....  0.804000
 Correlation Functional Correlation     .... PBE
 LDA part of GGA corr.  LDAOpt          .... PW91-LDA
 Gradients option       PostSCFGGA      .... off
 Hybrid DFT is turned on
   Fraction HF Exchange ScalHFX         ....  0.250000
   Scaling of DF-GGA-X  ScalDFX         ....  0.750000
   Scaling of DF-GGA-C  ScalDFC         ....  1.000000
   Scaling of DF-LDA-C  ScalLDAC        ....  1.000000
   Perturbative correction              ....  0.000000
   NL short-range parameter             ....  6.900000


General Settings:
 Integral files         IntName         .... 1019_+
 Hartree-Fock type      HFTyp           .... RHF
 Total Charge           Charge          ....    1
 Multiplicity           Mult            ....    1
 Number of Electrons    NEL             ....   50
 Basis Dimension        Dim             ....  258
 Nuclear Repulsion      ENuc            ....    283.2390776961 Eh

Convergence Acceleration:
 DIIS                   CNVDIIS         .... on
   Start iteration      DIISMaxIt       ....    12
   Startup error        DIISStart       ....  0.200000
   # of expansion vecs  DIISMaxEq       ....     5
   Bias factor          DIISBfac        ....   1.050
   Max. coefficient     DIISMaxC        ....  10.000
 Newton-Raphson         CNVNR           .... off
 SOSCF                  CNVSOSCF        .... on
   Start iteration      SOSCFMaxIt      ....   150
   Startup grad/error   SOSCFStart      ....  0.003300
 Level Shifting         CNVShift        .... on
   Level shift para.    LevelShift      ....    0.2500
   Turn off err/grad.   ShiftErr        ....    0.0010
 Zerner damping         CNVZerner       .... off
 Static damping         CNVDamp         .... on
   Fraction old density DampFac         ....    0.7000
   Max. Damping (<1)    DampMax         ....    0.9800
   Min. Damping (>=0)   DampMin         ....    0.0000
   Turn off err/grad.   DampErr         ....    0.1000
 Fernandez-Rico         CNVRico         .... off

SCF Procedure:
 Maximum # iterations   MaxIter         ....   125
 SCF integral mode      SCFMode         .... Direct
   Integral package                     .... LIBINT
 Reset frequeny         DirectResetFreq ....    20
 Integral Threshold     Thresh          ....  2.500e-11 Eh
 Primitive CutOff       TCut            ....  2.500e-12 Eh

Convergence Tolerance:
 Convergence Check Mode ConvCheckMode   .... Total+1el-Energy
 Energy Change          TolE            ....  1.000e-08 Eh
 1-El. energy change                    ....  1.000e-05 Eh
 Orbital Gradient       TolG            ....  1.000e-05
 Orbital Rotation angle TolX            ....  1.000e-05
 DIIS Error             TolErr          ....  5.000e-07


Diagonalization of the overlap matrix:
Smallest eigenvalue                        ... 1.750e-04
Time for diagonalization                   ...    0.082 sec
Threshold for overlap eigenvalues          ... 1.000e-08
Number of eigenvalues below threshold      ... 0
Time for construction of square roots      ...    0.011 sec
Total time needed                          ...    0.094 sec

-------------------
DFT GRID GENERATION
-------------------

General Integration Accuracy     IntAcc      ...  4.340
Radial Grid Type                 RadialGrid  ... Gauss-Chebyshev
Angular Grid (max. acc.)         AngularGrid ... Lebedev-194
Angular grid pruning method      GridPruning ... 3 (G Style)
Weight generation scheme         WeightScheme... Becke
Basis function cutoff            BFCut       ...    1.0000e-11
Integration weight cutoff        WCut        ...    1.0000e-14
Grids for H and He will be reduced by one unit

# of grid points (after initial pruning)     ...  38148 (   0.0 sec)
# of grid points (after weights+screening)   ...  34789 (   0.1 sec)
nearest neighbour list constructed           ...    0.0 sec
Grid point re-assignment to atoms done       ...    0.0 sec
Grid point division into batches done        ...    0.1 sec
Reduced shell lists constructed in    0.2 sec

Total number of grid points                  ...    34789
Total number of batches                      ...      555
Average number of points per batch           ...       62
Average number of grid points per atom       ...     1933
Average number of shells per batch           ...    97.34 (85.38%)
Average number of basis functions per batch  ...   228.83 (88.69%)
Average number of large shells per batch     ...    81.72 (83.95%)
Average number of large basis fcns per batch ...   192.62 (84.18%)
Maximum spatial batch extension              ...   2.57,  2.00,  2.30 au
Average spatial batch extension              ...   0.16,  0.15,  0.16 au

Time for grid setup =    0.231 sec

Loading Hartree-Fock densities                     ... done
Calculating cut-offs                               ... done
Setting up the integral package                    ... done
Initializing the effective Hamiltonian             ... done
Starting the Coulomb interaction                   ... done (   0.0 sec)
Reading the grid                                   ... done
Mapping shells                                     ... done
Starting the XC term evaluation                    ... done (   0.2 sec)
  promolecular density results
     # of electrons  =     50.995866925
     EX              =    -38.759661215
     EC              =     -1.682790202
     EX+EC           =    -40.442451418
Transforming the Hamiltonian                       ... done (   0.0 sec)
Diagonalizing the Hamiltonian                      ... done (   0.0 sec)
Back transforming the eigenvectors                 ... done (   0.0 sec)
Now organizing SCF variables                       ... done
--------------
SCF ITERATIONS
--------------
ITER       Energy         Delta-E        Max-DP      RMS-DP      [F,P]     Damp
               ***  Starting incremental Fock matrix formation  ***
  0   -288.9847519759   0.000000000000 0.03790930  0.00096588  0.2293857 0.7000
  1   -289.0690724078  -0.084320431936 0.03499690  0.00071655  0.1023188 0.7000
                               ***Turning on DIIS***
  2   -289.1043999095  -0.035327501716 0.06359031  0.00126604  0.0397556 0.0000
  3   -289.1567682642  -0.052368354739 0.02176200  0.00047134  0.0544373 0.0000
  4   -289.1694233852  -0.012655120926 0.00712248  0.00014049  0.0091567 0.0000
  5   -289.1698517952  -0.000428410069 0.00227123  0.00005823  0.0069753 0.0000
                      *** Initiating the SOSCF procedure ***
                           *** Shutting down DIIS ***
                      *** Re-Reading the Fockian *** 
                      *** Removing any level shift *** 
ITER      Energy       Delta-E        Grad      Rot      Max-DP    RMS-DP
  6   -289.16990966  -0.0000578646  0.000178  0.000178  0.001318  0.000032
               *** Restarting incremental Fock matrix formation ***
  7   -289.16991208  -0.0000024222  0.000076  0.000112  0.000186  0.000006
  8   -289.16991196   0.0000001249  0.000091  0.000059  0.000098  0.000003
  9   -289.16991239  -0.0000004367  0.000003  0.000007  0.000011  0.000000
 10   -289.16991239   0.0000000006  0.000004  0.000003  0.000008  0.000000
                  ***Gradient check signals convergence***
              ***Rediagonalizing the Fockian in SOSCF/NRSCF***

               *****************************************************
               *                     SUCCESS                       *
               *           SCF CONVERGED AFTER  11 CYCLES          *
               *****************************************************

Setting up the final grid:

General Integration Accuracy     IntAcc      ...  5.010
Radial Grid Type                 RadialGrid  ... Gauss-Chebyshev
Angular Grid (max. acc.)         AngularGrid ... Lebedev-434
Angular grid pruning method      GridPruning ... 3 (G Style)
Weight generation scheme         WeightScheme... Becke
Basis function cutoff            BFCut       ...    1.0000e-11
Integration weight cutoff        WCut        ...    1.0000e-14
Grids for H and He will be reduced by one unit

# of grid points (after initial pruning)     ... 144528 (   0.0 sec)
# of grid points (after weights+screening)   ... 130044 (   0.2 sec)
nearest neighbour list constructed           ...    0.0 sec
Grid point re-assignment to atoms done       ...    0.1 sec
Grid point division into batches done        ...    0.9 sec
Reduced shell lists constructed in    1.2 sec

Total number of grid points                  ...   130044
Total number of batches                      ...     2039
Average number of points per batch           ...       63
Average number of grid points per atom       ...     7225
Average number of shells per batch           ...    94.61 (82.99%)
Average number of basis functions per batch  ...   222.60 (86.28%)
Average number of large shells per batch     ...    77.70 (82.12%)
Average number of large basis fcns per batch ...   181.89 (81.71%)
Maximum spatial batch extension              ...   6.36, 10.60, 11.43 au
Average spatial batch extension              ...   0.10,  0.11,  0.11 au

Final grid set up in    1.4 sec
Final integration                            ... done (   0.7 sec)
Change in XC energy                          ...     0.000440980
Integrated number of electrons               ...    49.999996958
Previous integrated no of electrons          ...    50.001086121
Total Energy       :         -289.16947141 Eh           -7868.70135 eV
  Last Energy change         ...   -1.8229e-09  Tolerance :   1.0000e-08
  Last MAX-Density change    ...    3.3003e-06  Tolerance :   1.0000e-07
             **** THE GBW FILE WAS UPDATED (1019_+.gbw) ****
             **** DENSITY FILE WAS UPDATED (1019_+.scfp.tmp) ****
             **** ENERGY FILE WAS UPDATED (1019_+.en.tmp) ****
Total SCF time: 0 days 0 hours 0 min 59 sec 
           ************************************************************
           *              Shut down parallel processing               *
           ************************************************************

-------------------------   --------------------
FINAL SINGLE POINT ENERGY      -289.169471414504
-------------------------   --------------------



           ************************************************************
           *        Program running with 8 parallel MPI-processes     *
           *              working on a common directory               *
           ************************************************************
------------------------------------------------------------------------------
                         ORCA SCF GRADIENT CALCULATION
------------------------------------------------------------------------------

Gradient of the Kohn-Sham DFT energy:
Kohn-Sham wavefunction type      ... RKS
Hartree-Fock exchange scaling    ...    0.250
Number of operators              ...    1
Number of atoms                  ...   18
Basis set dimensions             ...  258
Integral neglect threshold       ... 2.5e-11
Integral primitive cutoff        ... 2.5e-12

Nuclear repulsion gradient       ... done
One Electron Gradient            ... done
Pre-screening matrix             ... done
Starting the two electron gradient:
Two electron gradient done
Exchange-correlation gradient    ... done

------------------
CARTESIAN GRADIENT
------------------

   1   C   :    0.000221799    0.000017733    0.000115712
   2   C   :    0.000116526   -0.000080083    0.000045131
   3   C   :   -0.000214693   -0.000194780   -0.000141638
   4   O   :   -0.000084737    0.000018608   -0.000108792
   5   C   :   -0.000036296    0.000137952    0.000099104
   6   N   :   -0.000108371   -0.000009045    0.000083009
   7   H   :   -0.000064644   -0.000051579   -0.000085177
   8   H   :   -0.000080358   -0.000017866    0.000038412
   9   H   :   -0.000016773    0.000116038   -0.000057412
  10   H   :    0.000002641   -0.000016531    0.000049168
  11   H   :    0.000081034    0.000100683    0.000052782
  12   H   :    0.000035332    0.000165405    0.000034447
  13   H   :    0.000012544   -0.000069113   -0.000020612
  14   H   :    0.000017316   -0.000079385   -0.000049669
  15   H   :    0.000024187   -0.000004143    0.000033815
  16   H   :    0.000068817   -0.000008166   -0.000080703
  17   H   :    0.000039738   -0.000069346   -0.000037747
  18   H   :   -0.000014063    0.000043620    0.000030170

Norm of the cartesian gradient     ...    0.000622054
RMS gradient                       ...    0.000084651
MAX gradient                       ...    0.000221799

-------
TIMINGS
-------

Total SCF gradient time            ...       27.606 sec

One electron gradient       ....       0.136 sec  (  0.5%)
Prescreening matrices       ....       0.403 sec  (  1.5%)
Two electron gradient       ....      22.240 sec  ( 80.6%)
XC gradient                 ....       4.195 sec  ( 15.2%)
           ************************************************************
           *              Shut down parallel processing               *
           ************************************************************
------------------------------------------------------------------------------
                         ORCA GEOMETRY RELAXATION STEP
------------------------------------------------------------------------------

Reading the OPT-File                    .... done
Getting information on internals        .... done
Copying old internal coords+grads       .... done
Making the new internal coordinates     .... (new redundants).... done
Validating the new internal coordinates .... (new redundants).... done
Calculating the B-matrix                .... done
Calculating the G,G- and P matrices     .... done
Transforming gradient to internals      .... done
Projecting the internal gradient        .... done
Number of atoms                         ....  18
Number of internal coordinates          ....  87
Current Energy                          ....  -289.169471415 Eh
Current gradient norm                   ....     0.000622054 Eh/bohr
Maximum allowed component of the step   ....  0.300
Current trust radius                    ....  0.300
Evaluating the initial hessian          ....  (Almloef) done
Projecting the Hessian                  .... done
Forming the augmented Hessian           .... done
Diagonalizing the augmented Hessian     .... done
Last element of RFO vector              ....  0.999979360
Lowest eigenvalues of augmented Hessian:
 -0.000001283  0.011164906  0.011784826  0.012188720  0.012888311
Length of the computed step             ....  0.006425088
The final length of the internal step   ....  0.006425088
Converting the step to cartesian space:
 Initial RMS(Int)=    0.0006888418
Transforming coordinates:
 Iter   0:  RMS(Cart)=    0.0010539361 RMS(Int)=    0.0006887983
 Iter   1:  RMS(Cart)=    0.0000006730 RMS(Int)=    0.0000005030
 Iter   2:  RMS(Cart)=    0.0000000010 RMS(Int)=    0.0000000008
done
Storing new coordinates                 .... done

                                .--------------------.
          ----------------------|Geometry convergence|---------------------
          Item                value                 Tolerance   Converged
          -----------------------------------------------------------------
          RMS gradient        0.00005076            0.00003000      NO
          MAX gradient        0.00017911            0.00010000      NO
          RMS step            0.00068884            0.00060000      NO
          MAX step            0.00187132            0.00100000      NO
          ....................................................
          Max(Bonds)      0.0002      Max(Angles)    0.03
          Max(Dihed)        0.11      Max(Improp)    0.00
          -----------------------------------------------------------------

The optimization has not yet converged - more geometry cycles are needed


    ---------------------------------------------------------------------------
                         Redundant Internal Coordinates
                            (Angstroem and degrees)

        Definition                    Value    dE/dq     Step     New-Value
    ----------------------------------------------------------------------------
     1. B(C   1,C   0)                1.5172 -0.000087  0.0001    1.5173   
     2. B(C   2,C   1)                1.5220  0.000070 -0.0001    1.5219   
     3. B(O   3,C   1)                1.4282 -0.000146  0.0002    1.4283   
     4. B(C   4,C   1)                1.5297 -0.000049  0.0001    1.5298   
     5. B(N   5,C   4)                1.4990 -0.000033  0.0000    1.4990   
     6. B(H   6,C   0)                1.0925  0.000103 -0.0002    1.0923   
     7. B(H   7,C   0)                1.0922  0.000074 -0.0001    1.0920   
     8. B(H   8,C   0)                1.0910 -0.000130  0.0002    1.0912   
     9. B(H   9,C   2)                1.0917 -0.000048  0.0001    1.0918   
    10. B(H  10,C   2)                1.0944  0.000130 -0.0002    1.0942   
    11. B(H  11,C   2)                1.0920  0.000059 -0.0001    1.0919   
    12. B(H  12,O   3)                0.9621 -0.000047  0.0000    0.9621   
    13. B(H  13,C   4)                1.0899  0.000068 -0.0001    1.0898   
    14. B(H  14,C   4)                1.0885 -0.000036  0.0001    1.0886   
    15. B(H  15,N   5)                1.0335 -0.000090  0.0001    1.0336   
    16. B(H  16,N   5)                1.0200 -0.000042  0.0001    1.0201   
    17. B(H  17,N   5)                1.0193 -0.000041  0.0001    1.0194   
    18. A(C   1,C   0,H   8)          110.82 -0.000035    0.01    110.83   
    19. A(H   6,C   0,H   8)          108.87 -0.000034    0.01    108.88   
    20. A(C   1,C   0,H   6)          111.22  0.000078   -0.02    111.21   
    21. A(H   7,C   0,H   8)          108.39 -0.000026    0.01    108.39   
    22. A(C   1,C   0,H   7)          110.07  0.000061   -0.01    110.06   
    23. A(H   6,C   0,H   7)          107.36 -0.000047    0.00    107.36   
    24. A(C   2,C   1,O   3)          110.72  0.000038   -0.02    110.70   
    25. A(O   3,C   1,C   4)          101.75 -0.000018    0.01    101.76   
    26. A(C   0,C   1,O   3)          111.36 -0.000031    0.02    111.38   
    27. A(C   2,C   1,C   4)          112.02  0.000017   -0.01    112.01   
    28. A(C   0,C   1,C   2)          111.57 -0.000006   -0.00    111.57   
    29. A(C   0,C   1,C   4)          109.03 -0.000001    0.00    109.03   
    30. A(C   1,C   2,H  10)          112.53 -0.000018    0.01    112.54   
    31. A(C   1,C   2,H   9)          111.19 -0.000036    0.00    111.20   
    32. A(H   9,C   2,H  11)          107.48 -0.000034   -0.01    107.47   
    33. A(C   1,C   2,H  11)          109.99  0.000179   -0.03    109.95   
    34. A(H   9,C   2,H  10)          108.70  0.000021   -0.00    108.70   
    35. A(H  10,C   2,H  11)          106.73 -0.000117    0.03    106.76   
    36. A(C   1,O   3,H  12)          110.73  0.000003   -0.00    110.73   
    37. A(C   1,C   4,N   5)          108.22  0.000080   -0.02    108.20   
    38. A(H  13,C   4,H  14)          109.78 -0.000007    0.01    109.79   
    39. A(N   5,C   4,H  14)          109.16 -0.000040    0.01    109.17   
    40. A(C   1,C   4,H  14)          112.91 -0.000005   -0.00    112.90   
    41. A(N   5,C   4,H  13)          106.37 -0.000023    0.00    106.37   
    42. A(C   1,C   4,H  13)          110.19 -0.000006   -0.00    110.18   
    43. A(H  15,N   5,H  17)          110.21 -0.000051    0.01    110.22   
    44. A(C   4,N   5,H  17)          112.74  0.000022   -0.00    112.74   
    45. A(H  15,N   5,H  16)          108.08 -0.000003   -0.01    108.08   
    46. A(C   4,N   5,H  16)          112.22 -0.000007    0.00    112.22   
    47. A(H  16,N   5,H  17)          108.32 -0.000037    0.01    108.33   
    48. A(C   4,N   5,H  15)          105.16  0.000076   -0.02    105.14   
    49. D(O   3,C   1,C   0,H   6)   -172.78  0.000031    0.00   -172.78   
    50. D(C   2,C   1,C   0,H   6)     62.95  0.000009    0.01     62.96   
    51. D(C   2,C   1,C   0,H   7)    -55.91 -0.000021    0.03    -55.88   
    52. D(O   3,C   1,C   0,H   8)    -51.52  0.000016    0.01    -51.51   
    53. D(O   3,C   1,C   0,H   7)     68.36  0.000001    0.02     68.38   
    54. D(C   2,C   1,C   0,H   8)   -175.79 -0.000006    0.02   -175.77   
    55. D(C   4,C   1,C   0,H   7)    179.85 -0.000037    0.04    179.88   
    56. D(C   4,C   1,C   0,H   8)     59.96 -0.000023    0.03     59.99   
    57. D(C   4,C   1,C   0,H   6)    -61.30 -0.000008    0.02    -61.28   
    58. D(H  10,C   2,C   1,C   0)    179.30 -0.000001   -0.06    179.24   
    59. D(H  10,C   2,C   1,O   3)     54.67  0.000015   -0.07     54.60   
    60. D(H   9,C   2,C   1,C   4)     64.07 -0.000007   -0.06     64.01   
    61. D(H   9,C   2,C   1,O   3)    176.89  0.000003   -0.07    176.83   
    62. D(H   9,C   2,C   1,C   0)    -58.48 -0.000014   -0.06    -58.53   
    63. D(H  10,C   2,C   1,C   4)    -58.15  0.000005   -0.07    -58.21   
    64. D(H  11,C   2,C   1,C   4)   -177.00  0.000044   -0.09   -177.08   
    65. D(H  11,C   2,C   1,O   3)    -64.18  0.000054   -0.09    -64.27   
    66. D(H  11,C   2,C   1,C   0)     60.45  0.000037   -0.08     60.37   
    67. D(H  12,O   3,C   1,C   4)   -177.72  0.000048   -0.11   -177.83   
    68. D(H  12,O   3,C   1,C   2)     63.06  0.000022   -0.09     62.97   
    69. D(H  12,O   3,C   1,C   0)    -61.68  0.000024   -0.09    -61.77   
    70. D(H  14,C   4,C   1,O   3)   -166.27 -0.000027   -0.02   -166.29   
    71. D(H  14,C   4,C   1,C   2)    -47.99  0.000015   -0.04    -48.03   
    72. D(H  14,C   4,C   1,C   0)     75.99  0.000018   -0.05     75.95   
    73. D(H  13,C   4,C   1,O   3)     70.59 -0.000010   -0.03     70.55   
    74. D(H  13,C   4,C   1,C   2)   -171.13  0.000031   -0.05   -171.18   
    75. D(H  13,C   4,C   1,C   0)    -47.15  0.000034   -0.06    -47.20   
    76. D(N   5,C   4,C   1,O   3)    -45.33 -0.000025   -0.03    -45.36   
    77. D(N   5,C   4,C   1,C   2)     72.95  0.000017   -0.04     72.91   
    78. D(N   5,C   4,C   1,C   0)   -163.07  0.000020   -0.05   -163.12   
    79. D(H  15,N   5,C   4,C   1)     39.08  0.000001    0.05     39.13   
    80. D(H  17,N   5,C   4,H  13)     40.81 -0.000022    0.06     40.87   
    81. D(H  17,N   5,C   4,C   1)    159.19  0.000000    0.05    159.23   
    82. D(H  16,N   5,C   4,H  14)     45.06 -0.000018    0.06     45.12   
    83. D(H  16,N   5,C   4,H  13)    163.44 -0.000059    0.08    163.52   
    84. D(H  16,N   5,C   4,C   1)    -78.18 -0.000037    0.07    -78.11   
    85. D(H  15,N   5,C   4,H  14)    162.32  0.000021    0.04    162.36   
    86. D(H  17,N   5,C   4,H  14)    -77.58  0.000020    0.04    -77.54   
    87. D(H  15,N   5,C   4,H  13)    -79.30 -0.000021    0.06    -79.24   
    ----------------------------------------------------------------------------

         *************************************************************
         *                GEOMETRY OPTIMIZATION CYCLE   2            *
         *************************************************************
---------------------------------
CARTESIAN COORDINATES (ANGSTROEM)
---------------------------------
  C     -1.697418   -0.873276   -0.144856
  C     -0.472533    0.007429    0.016816
  C     -0.741055    1.430484   -0.451037
  O      0.000093   -0.000240    1.364663
  C      0.701682   -0.629214   -0.728954
  N      1.968285    0.000311   -0.232537
  H     -1.980779   -0.967077   -1.195594
  H     -2.546433   -0.434672    0.383688
  H     -1.515682   -1.869315    0.262170
  H     -1.049383    1.450170   -1.498186
  H      0.128644    2.083207   -0.329044
  H     -1.549421    1.869763    0.137017
  H     -0.667910    0.350349    1.961760
  H      0.770306   -1.689594   -0.486973
  H      0.637861   -0.500847   -1.808048
  H      1.830373    0.118132    0.785052
  H      2.125988    0.922320   -0.639413
  H      2.790723   -0.574466   -0.412426

----------------------------
CARTESIAN COORDINATES (A.U.)
----------------------------
  NO LB      ZA    FRAG    MASS        X           Y           Z
   0 C     6.0000    0    12.011         -3.207655258441469         -1.650251639616091         -0.273738300697931
   1 C     6.0000    0    12.011         -0.892957835338103          0.014038474970205          0.031778421845581
   2 C     6.0000    0    12.011         -1.400390429049612          2.703222531787428         -0.852335921488404
   3 O     8.0000    0    15.999          0.000176476718349         -0.000454343213517          2.578839946493304
   4 C     6.0000    0    12.011          1.325986279954771         -1.189042442517316         -1.377524251470522
   5 N     7.0000    0    14.007          3.719520161141928          0.000588343950035         -0.439431995032307
   6 H     1.0000    0     1.008         -3.743129149617849         -1.827511112441333         -2.259344853384521
   7 H     1.0000    0     1.008         -4.812060554029540         -0.821411905176571          0.725065771077466
   8 H     1.0000    0     1.008         -2.864223856325950         -3.532493479548843          0.495429491376260
   9 H     1.0000    0     1.008         -1.983047366956356          2.740423403229173         -2.831161744603496
  10 H     1.0000    0     1.008          0.243102133995302          3.936690652285642         -0.621802295534966
  11 H     1.0000    0     1.008         -2.927981360152982          3.533340467759826          0.258924907697393
  12 H     1.0000    0     1.008         -1.262166517179253          0.662063564979001          3.707189620128617
  13 H     1.0000    0     1.008          1.455666947280026         -3.192869353914405         -0.920245958139616
  14 H     1.0000    0     1.008          1.205383234214441         -0.946463232363961         -3.416715054530527
  15 H     1.0000    0     1.008          3.458903559767368          0.223236349344169          1.483532897298086
  16 H     1.0000    0     1.008          4.017535272337106          1.742932351736932         -1.208314566833531
  17 H     1.0000    0     1.008          5.273701456663900         -1.085583355072028         -0.779372381296346

--------------------------------
INTERNAL COORDINATES (ANGSTROEM)
--------------------------------
 C      0   0   0   0.000000     0.000     0.000
 C      1   0   0   1.517274     0.000     0.000
 C      2   1   0   1.521866   111.566     0.000
 O      2   1   3   1.428330   111.381   124.259
 C      2   1   3   1.529794   109.035   235.766
 N      5   2   1   1.499005   108.201   196.883
 H      1   2   3   1.092310   111.209    62.959
 H      1   2   3   1.092043   110.056   304.117
 H      1   2   3   1.091235   110.832   184.228
 H      3   2   1   1.091777   111.195   301.466
 H      3   2   1   1.094215   112.537   179.240
 H      3   2   1   1.091893   109.953    60.370
 H      4   2   1   0.962115   110.728   298.226
 H      5   2   1   1.089802   110.183   312.796
 H      5   2   1   1.088574   112.903    75.948
 H      6   5   2   1.033629   105.139    39.128
 H      6   5   2   1.020058   112.218   281.887
 H      6   5   2   1.019378   112.736   159.235

---------------------------
INTERNAL COORDINATES (A.U.)
---------------------------
 C      0   0   0   0.000000     0.000     0.000
 C      1   0   0   2.867233     0.000     0.000
 C      2   1   0   2.875910   111.566     0.000
 O      2   1   3   2.699152   111.381   124.259
 C      2   1   3   2.890891   109.035   235.766
 N      5   2   1   2.832709   108.201   196.883
 H      1   2   3   2.064167   111.209    62.959
 H      1   2   3   2.063662   110.056   304.117
 H      1   2   3   2.062134   110.832   184.228
 H      3   2   1   2.063159   111.195   301.466
 H      3   2   1   2.067766   112.537   179.240
 H      3   2   1   2.063378   109.953    60.370
 H      4   2   1   1.818134   110.728   298.226
 H      5   2   1   2.059428   110.183   312.796
 H      5   2   1   2.057107   112.903    75.948
 H      6   5   2   1.953276   105.139    39.128
 H      6   5   2   1.927630   112.218   281.887
 H      6   5   2   1.926346   112.736   159.235



           ************************************************************
           *        Program running with 8 parallel MPI-processes     *
           *              working on a common directory               *
           ************************************************************
           ************************************************************
           *              Shut down parallel processing               *
           ************************************************************


           ************************************************************
           *        Program running with 8 parallel MPI-processes     *
           *              working on a common directory               *
           ************************************************************

Diagonalization of the overlap matrix:
Smallest eigenvalue                        ... 1.751e-04
Time for diagonalization                   ...    0.019 sec
Threshold for overlap eigenvalues          ... 1.000e-08
Number of eigenvalues below threshold      ... 0
Time for construction of square roots      ...    0.012 sec
Total time needed                          ...    0.031 sec

-------------------
DFT GRID GENERATION
-------------------

General Integration Accuracy     IntAcc      ...  4.340
Radial Grid Type                 RadialGrid  ... Gauss-Chebyshev
Angular Grid (max. acc.)         AngularGrid ... Lebedev-194
Angular grid pruning method      GridPruning ... 3 (G Style)
Weight generation scheme         WeightScheme... Becke
Basis function cutoff            BFCut       ...    1.0000e-11
Integration weight cutoff        WCut        ...    1.0000e-14
Grids for H and He will be reduced by one unit

# of grid points (after initial pruning)     ...  38148 (   0.0 sec)
# of grid points (after weights+screening)   ...  34791 (   0.1 sec)
nearest neighbour list constructed           ...    0.0 sec
Grid point re-assignment to atoms done       ...    0.0 sec
Grid point division into batches done        ...    0.1 sec
Reduced shell lists constructed in    0.1 sec

Total number of grid points                  ...    34791
Total number of batches                      ...      555
Average number of points per batch           ...       62
Average number of grid points per atom       ...     1933
Average number of shells per batch           ...    97.34 (85.38%)
Average number of basis functions per batch  ...   228.83 (88.69%)
Average number of large shells per batch     ...    81.70 (83.94%)
Average number of large basis fcns per batch ...   192.58 (84.16%)
Maximum spatial batch extension              ...   2.57,  2.00,  2.30 au
Average spatial batch extension              ...   0.16,  0.15,  0.16 au

Time for grid setup =    0.232 sec

--------------
SCF ITERATIONS
--------------
ITER       Energy         Delta-E        Max-DP      RMS-DP      [F,P]     Damp
               ***  Starting incremental Fock matrix formation  ***
                      *** Initiating the SOSCF procedure ***
                      *** Re-Reading the Fockian *** 
                      *** Removing any level shift *** 
ITER      Energy       Delta-E        Grad      Rot      Max-DP    RMS-DP
  0   -289.16991092 -289.1699109159  0.000108  0.000108  0.000320  0.000007
               *** Restarting incremental Fock matrix formation ***
  1   -289.16991200  -0.0000010869  0.000030  0.000048  0.000130  0.000002
  2   -289.16991210  -0.0000000950  0.000007  0.000012  0.000027  0.000001
  3   -289.16991210  -0.0000000003  0.000008  0.000005  0.000011  0.000000
                  ***Gradient check signals convergence***
              ***Rediagonalizing the Fockian in SOSCF/NRSCF***

               *****************************************************
               *                     SUCCESS                       *
               *           SCF CONVERGED AFTER   4 CYCLES          *
               *****************************************************

Setting up the final grid:

General Integration Accuracy     IntAcc      ...  5.010
Radial Grid Type                 RadialGrid  ... Gauss-Chebyshev
Angular Grid (max. acc.)         AngularGrid ... Lebedev-434
Angular grid pruning method      GridPruning ... 3 (G Style)
Weight generation scheme         WeightScheme... Becke
Basis function cutoff            BFCut       ...    1.0000e-11
Integration weight cutoff        WCut        ...    1.0000e-14
Grids for H and He will be reduced by one unit

# of grid points (after initial pruning)     ... 144528 (   0.0 sec)
# of grid points (after weights+screening)   ... 130040 (   0.2 sec)
nearest neighbour list constructed           ...    0.0 sec
Grid point re-assignment to atoms done       ...    0.1 sec
Grid point division into batches done        ...    0.9 sec
Reduced shell lists constructed in    1.2 sec

Total number of grid points                  ...   130040
Total number of batches                      ...     2039
Average number of points per batch           ...       63
Average number of grid points per atom       ...     7224
Average number of shells per batch           ...    94.62 (83.00%)
Average number of basis functions per batch  ...   222.62 (86.29%)
Average number of large shells per batch     ...    77.68 (82.10%)
Average number of large basis fcns per batch ...   181.75 (81.64%)
Maximum spatial batch extension              ...   6.36, 10.60, 11.43 au
Average spatial batch extension              ...   0.10,  0.11,  0.11 au

Final grid set up in    1.4 sec
Final integration                            ... done (   0.8 sec)
Change in XC energy                          ...     0.000439734
Integrated number of electrons               ...    49.999997068
Previous integrated no of electrons          ...    50.001077593
Total Energy       :         -289.16947237 Eh           -7868.70138 eV
  Last Energy change         ...   -3.7876e-09  Tolerance :   1.0000e-08
  Last MAX-Density change    ...    4.5243e-06  Tolerance :   1.0000e-07
             **** THE GBW FILE WAS UPDATED (1019_+.gbw) ****
             **** DENSITY FILE WAS UPDATED (1019_+.scfp.tmp) ****
             **** ENERGY FILE WAS UPDATED (1019_+.en.tmp) ****
Total SCF time: 0 days 0 hours 0 min 25 sec 
           ************************************************************
           *              Shut down parallel processing               *
           ************************************************************

-------------------------   --------------------
FINAL SINGLE POINT ENERGY      -289.169472367629
-------------------------   --------------------



           ************************************************************
           *        Program running with 8 parallel MPI-processes     *
           *              working on a common directory               *
           ************************************************************
------------------------------------------------------------------------------
                         ORCA SCF GRADIENT CALCULATION
------------------------------------------------------------------------------

Gradient of the Kohn-Sham DFT energy:
Kohn-Sham wavefunction type      ... RKS
Hartree-Fock exchange scaling    ...    0.250
Number of operators              ...    1
Number of atoms                  ...   18
Basis set dimensions             ...  258
Integral neglect threshold       ... 2.5e-11
Integral primitive cutoff        ... 2.5e-12

Nuclear repulsion gradient       ... done
One Electron Gradient            ... done
Pre-screening matrix             ... done
Starting the two electron gradient:
Two electron gradient done
Exchange-correlation gradient    ... done

------------------
CARTESIAN GRADIENT
------------------

   1   C   :    0.000059050    0.000069793   -0.000010880
   2   C   :    0.000065829   -0.000028611    0.000030043
   3   C   :   -0.000076648   -0.000098190   -0.000039140
   4   O   :   -0.000028871    0.000048231   -0.000039318
   5   C   :   -0.000013582    0.000028281    0.000055406
   6   N   :   -0.000103405    0.000017573    0.000025880
   7   H   :   -0.000033069   -0.000025396    0.000006421
   8   H   :   -0.000019307   -0.000021843   -0.000001463
   9   H   :   -0.000001584   -0.000005018   -0.000006662
  10   H   :   -0.000000613   -0.000013422    0.000009378
  11   H   :    0.000004441    0.000022788    0.000017833
  12   H   :    0.000051736    0.000076580    0.000013812
  13   H   :   -0.000013116   -0.000045081    0.000014120
  14   H   :    0.000000593   -0.000012127   -0.000047877
  15   H   :    0.000017934    0.000004031   -0.000005986
  16   H   :    0.000041286   -0.000005109   -0.000002368
  17   H   :    0.000035207   -0.000013855   -0.000038529
  18   H   :    0.000014119    0.000001376    0.000019333

Norm of the cartesian gradient     ...    0.000273889
RMS gradient                       ...    0.000037272
MAX gradient                       ...    0.000103405

-------
TIMINGS
-------

Total SCF gradient time            ...       29.003 sec

One electron gradient       ....       0.240 sec  (  0.8%)
Prescreening matrices       ....       0.540 sec  (  1.9%)
Two electron gradient       ....      22.148 sec  ( 76.4%)
XC gradient                 ....       4.171 sec  ( 14.4%)
           ************************************************************
           *              Shut down parallel processing               *
           ************************************************************
------------------------------------------------------------------------------
                         ORCA GEOMETRY RELAXATION STEP
------------------------------------------------------------------------------

Reading the OPT-File                    .... done
Getting information on internals        .... done
Copying old internal coords+grads       .... done
Making the new internal coordinates     .... (new redundants).... done
Validating the new internal coordinates .... (new redundants).... done
Calculating the B-matrix                .... done
Calculating the G,G- and P matrices     .... done
Transforming gradient to internals      .... done
Projecting the internal gradient        .... done
Number of atoms                         ....  18
Number of internal coordinates          ....  87
Current Energy                          ....  -289.169472368 Eh
Current gradient norm                   ....     0.000273889 Eh/bohr
Maximum allowed component of the step   ....  0.300
Current trust radius                    ....  0.300
Updating the Hessian (BFGS)             .... done
Forming the augmented Hessian           .... done
Diagonalizing the augmented Hessian     .... done
Last element of RFO vector              ....  0.999923372
Lowest eigenvalues of augmented Hessian:
 -0.000001198  0.006532004  0.011281364  0.012175142  0.012539352
Length of the computed step             ....  0.012380389
The final length of the internal step   ....  0.012380389
Converting the step to cartesian space:
 Initial RMS(Int)=    0.0013273171
Transforming coordinates:
 Iter   0:  RMS(Cart)=    0.0018371189 RMS(Int)=    0.0013271848
 Iter   1:  RMS(Cart)=    0.0000024451 RMS(Int)=    0.0000018855
 Iter   2:  RMS(Cart)=    0.0000000079 RMS(Int)=    0.0000000064
done
Storing new coordinates                 .... done

                                .--------------------.
          ----------------------|Geometry convergence|---------------------
          Item                value                 Tolerance   Converged
          -----------------------------------------------------------------
          Energy change      -0.00000095            0.00000100      YES
          RMS gradient        0.00002100            0.00003000      YES
          MAX gradient        0.00009099            0.00010000      YES
          RMS step            0.00132732            0.00060000      NO
          MAX step            0.00369202            0.00100000      NO
          ....................................................
          Max(Bonds)      0.0001      Max(Angles)    0.05
          Max(Dihed)        0.21      Max(Improp)    0.00
          -----------------------------------------------------------------

       The energies and gradients are converged
       and the convergence on bond distances, angles, dihedrals and impropers
       is acceptable.
       Convergence will therefore be signaled now


                    ***********************HURRAY********************
                    ***        THE OPTIMIZATION HAS CONVERGED     ***
                    *************************************************


    ---------------------------------------------------------------------------
                         Redundant Internal Coordinates

                          --- Optimized Parameters ---  
                            (Angstroem and degrees)

        Definition                    OldVal   dE/dq     Step     FinalVal
    ----------------------------------------------------------------------------
     1. B(C   1,C   0)                1.5173 -0.000013  0.0001    1.5174   
     2. B(C   2,C   1)                1.5219 -0.000008 -0.0000    1.5218   
     3. B(O   3,C   1)                1.4283 -0.000038  0.0001    1.4285   
     4. B(C   4,C   1)                1.5298 -0.000016  0.0001    1.5299   
     5. B(N   5,C   4)                1.4990 -0.000010  0.0000    1.4991   
     6. B(H   6,C   0)                1.0923  0.000004 -0.0001    1.0922   
     7. B(H   7,C   0)                1.0920  0.000006 -0.0001    1.0920   
     8. B(H   8,C   0)                1.0912  0.000002  0.0001    1.0913   
     9. B(H   9,C   2)                1.0918 -0.000009  0.0001    1.0918   
    10. B(H  10,C   2)                1.0942  0.000019 -0.0001    1.0941   
    11. B(H  11,C   2)                1.0919 -0.000000 -0.0000    1.0919   
    12. B(H  12,O   3)                0.9621  0.000001  0.0000    0.9621   
    13. B(H  13,C   4)                1.0898  0.000002 -0.0000    1.0898   
    14. B(H  14,C   4)                1.0886  0.000005  0.0000    1.0886   
    15. B(H  15,N   5)                1.0336 -0.000009  0.0001    1.0337   
    16. B(H  16,N   5)                1.0201  0.000008  0.0000    1.0201   
    17. B(H  17,N   5)                1.0194  0.000007  0.0000    1.0194   
    18. A(C   1,C   0,H   8)          110.83 -0.000013    0.01    110.84   
    19. A(H   6,C   0,H   8)          108.88 -0.000026    0.02    108.90   
    20. A(C   1,C   0,H   6)          111.21  0.000056   -0.03    111.18   
    21. A(H   7,C   0,H   8)          108.39 -0.000015    0.01    108.41   
    22. A(C   1,C   0,H   7)          110.06  0.000031   -0.02    110.04   
    23. A(H   6,C   0,H   7)          107.36 -0.000035    0.01    107.37   
    24. A(C   2,C   1,O   3)          110.70  0.000012   -0.02    110.69   
    25. A(O   3,C   1,C   4)          101.76  0.000010   -0.00    101.76   
    26. A(C   0,C   1,O   3)          111.38 -0.000018    0.02    111.40   
    27. A(C   2,C   1,C   4)          112.01 -0.000017    0.00    112.01   
    28. A(C   0,C   1,C   2)          111.57  0.000009   -0.00    111.56   
    29. A(C   0,C   1,C   4)          109.03  0.000004    0.00    109.04   
    30. A(C   1,C   2,H  10)          112.54 -0.000009    0.01    112.55   
    31. A(C   1,C   2,H   9)          111.20 -0.000025    0.00    111.20   
    32. A(H   9,C   2,H  11)          107.47 -0.000008   -0.01    107.46   
    33. A(C   1,C   2,H  11)          109.95  0.000091   -0.05    109.90   
    34. A(H   9,C   2,H  10)          108.70  0.000012   -0.00    108.70   
    35. A(H  10,C   2,H  11)          106.76 -0.000063    0.05    106.81   
    36. A(C   1,O   3,H  12)          110.73  0.000017   -0.01    110.72   
    37. A(C   1,C   4,N   5)          108.20  0.000019   -0.02    108.18   
    38. A(H  13,C   4,H  14)          109.79 -0.000011    0.02    109.81   
    39. A(N   5,C   4,H  14)          109.17 -0.000020    0.01    109.18   
    40. A(C   1,C   4,H  14)          112.90  0.000009   -0.01    112.90   
    41. A(N   5,C   4,H  13)          106.37  0.000003   -0.00    106.37   
    42. A(C   1,C   4,H  13)          110.18  0.000000   -0.01    110.18   
    43. A(H  15,N   5,H  17)          110.22 -0.000035    0.02    110.24   
    44. A(C   4,N   5,H  17)          112.74  0.000004    0.00    112.74   
    45. A(H  15,N   5,H  16)          108.08 -0.000001   -0.02    108.06   
    46. A(C   4,N   5,H  16)          112.22  0.000003   -0.00    112.22   
    47. A(H  16,N   5,H  17)          108.33 -0.000021    0.02    108.36   
    48. A(C   4,N   5,H  15)          105.14  0.000050   -0.03    105.11   
    49. D(O   3,C   1,C   0,H   6)   -172.78  0.000004    0.02   -172.77   
    50. D(C   2,C   1,C   0,H   6)     62.96 -0.000005    0.03     62.99   
    51. D(C   2,C   1,C   0,H   7)    -55.88 -0.000016    0.05    -55.84   
    52. D(O   3,C   1,C   0,H   8)    -51.51  0.000000    0.02    -51.49   
    53. D(O   3,C   1,C   0,H   7)     68.38 -0.000007    0.03     68.41   
    54. D(C   2,C   1,C   0,H   8)   -175.77 -0.000008    0.04   -175.74   
    55. D(C   4,C   1,C   0,H   7)    179.88 -0.000003    0.04    179.92   
    56. D(C   4,C   1,C   0,H   8)     59.99  0.000005    0.03     60.02   
    57. D(C   4,C   1,C   0,H   6)    -61.28  0.000009    0.02    -61.25   
    58. D(H  10,C   2,C   1,C   0)    179.24  0.000005   -0.14    179.10   
    59. D(H  10,C   2,C   1,O   3)     54.60  0.000013   -0.14     54.46   
    60. D(H   9,C   2,C   1,C   4)     64.01 -0.000006   -0.12     63.89   
    61. D(H   9,C   2,C   1,O   3)    176.83  0.000003   -0.13    176.69   
    62. D(H   9,C   2,C   1,C   0)    -58.53 -0.000005   -0.13    -58.66   
    63. D(H  10,C   2,C   1,C   4)    -58.21  0.000004   -0.13    -58.34   
    64. D(H  11,C   2,C   1,C   4)   -177.08  0.000027   -0.17   -177.25   
    65. D(H  11,C   2,C   1,O   3)    -64.27  0.000036   -0.18    -64.45   
    66. D(H  11,C   2,C   1,C   0)     60.37  0.000028   -0.17     60.20   
    67. D(H  12,O   3,C   1,C   4)   -177.83  0.000023   -0.21   -178.04   
    68. D(H  12,O   3,C   1,C   2)     62.97  0.000032   -0.21     62.77   
    69. D(H  12,O   3,C   1,C   0)    -61.77  0.000025   -0.20    -61.98   
    70. D(H  14,C   4,C   1,O   3)   -166.29 -0.000003   -0.06   -166.35   
    71. D(H  14,C   4,C   1,C   2)    -48.03  0.000008   -0.08    -48.10   
    72. D(H  14,C   4,C   1,C   0)     75.95  0.000011   -0.07     75.87   
    73. D(H  13,C   4,C   1,O   3)     70.55  0.000004   -0.07     70.48   
    74. D(H  13,C   4,C   1,C   2)   -171.18  0.000016   -0.09   -171.27   
    75. D(H  13,C   4,C   1,C   0)    -47.20  0.000018   -0.09    -47.30   
    76. D(N   5,C   4,C   1,O   3)    -45.36 -0.000010   -0.06    -45.41   
    77. D(N   5,C   4,C   1,C   2)     72.91  0.000002   -0.08     72.83   
    78. D(N   5,C   4,C   1,C   0)   -163.12  0.000004   -0.07   -163.19   
    79. D(H  15,N   5,C   4,C   1)     39.13  0.000004    0.09     39.22   
    80. D(H  17,N   5,C   4,H  13)     40.87 -0.000016    0.11     40.98   
    81. D(H  17,N   5,C   4,C   1)    159.23 -0.000004    0.10    159.33   
    82. D(H  16,N   5,C   4,H  14)     45.12 -0.000016    0.12     45.23   
    83. D(H  16,N   5,C   4,H  13)    163.52 -0.000038    0.15    163.67   
    84. D(H  16,N   5,C   4,C   1)    -78.11 -0.000026    0.13    -77.99   
    85. D(H  15,N   5,C   4,H  14)    162.36  0.000014    0.08    162.44   
    86. D(H  17,N   5,C   4,H  14)    -77.54  0.000006    0.08    -77.45   
    87. D(H  15,N   5,C   4,H  13)    -79.24 -0.000007    0.11    -79.13   
    ----------------------------------------------------------------------------
                 *******************************************************
                 *** FINAL ENERGY EVALUATION AT THE STATIONARY POINT ***
                 ***               (AFTER    2 CYCLES)               ***
                 *******************************************************


           ************************************************************
           *        Program running with 8 parallel MPI-processes     *
           *              working on a common directory               *
           ************************************************************
           ************************************************************
           *              Shut down parallel processing               *
           ************************************************************


           ************************************************************
           *        Program running with 8 parallel MPI-processes     *
           *              working on a common directory               *
           ************************************************************
------------
SCF SETTINGS
------------
Hamiltonian:
 Density Functional     Method          .... DFT(GTOs)
 Exchange Functional    Exchange        .... PBE
   PBE kappa parameter  XKappa          ....  0.804000
 Correlation Functional Correlation     .... PBE
 LDA part of GGA corr.  LDAOpt          .... PW91-LDA
 Gradients option       PostSCFGGA      .... off
 Hybrid DFT is turned on
   Fraction HF Exchange ScalHFX         ....  0.250000
   Scaling of DF-GGA-X  ScalDFX         ....  0.750000
   Scaling of DF-GGA-C  ScalDFC         ....  1.000000
   Scaling of DF-LDA-C  ScalLDAC        ....  1.000000
   Perturbative correction              ....  0.000000
   NL short-range parameter             ....  6.900000


General Settings:
 Integral files         IntName         .... 1019_+
 Hartree-Fock type      HFTyp           .... RHF
 Total Charge           Charge          ....    1
 Multiplicity           Mult            ....    1
 Number of Electrons    NEL             ....   50
 Basis Dimension        Dim             ....  258
 Nuclear Repulsion      ENuc            ....    283.2384625863 Eh

Convergence Acceleration:
 DIIS                   CNVDIIS         .... on
   Start iteration      DIISMaxIt       ....    12
   Startup error        DIISStart       ....  0.200000
   # of expansion vecs  DIISMaxEq       ....     5
   Bias factor          DIISBfac        ....   1.050
   Max. coefficient     DIISMaxC        ....  10.000
 Newton-Raphson         CNVNR           .... off
 SOSCF                  CNVSOSCF        .... on
   Start iteration      SOSCFMaxIt      ....   150
   Startup grad/error   SOSCFStart      ....  0.003300
 Level Shifting         CNVShift        .... on
   Level shift para.    LevelShift      ....    0.2500
   Turn off err/grad.   ShiftErr        ....    0.0010
 Zerner damping         CNVZerner       .... off
 Static damping         CNVDamp         .... on
   Fraction old density DampFac         ....    0.7000
   Max. Damping (<1)    DampMax         ....    0.9800
   Min. Damping (>=0)   DampMin         ....    0.0000
   Turn off err/grad.   DampErr         ....    0.1000
 Fernandez-Rico         CNVRico         .... off

SCF Procedure:
 Maximum # iterations   MaxIter         ....   125
 SCF integral mode      SCFMode         .... Direct
   Integral package                     .... LIBINT
 Reset frequeny         DirectResetFreq ....    20
 Integral Threshold     Thresh          ....  2.500e-11 Eh
 Primitive CutOff       TCut            ....  2.500e-12 Eh

Convergence Tolerance:
 Convergence Check Mode ConvCheckMode   .... Total+1el-Energy
 Energy Change          TolE            ....  1.000e-08 Eh
 1-El. energy change                    ....  1.000e-05 Eh
 Orbital Gradient       TolG            ....  1.000e-05
 Orbital Rotation angle TolX            ....  1.000e-05
 DIIS Error             TolErr          ....  5.000e-07


Diagonalization of the overlap matrix:
Smallest eigenvalue                        ... 1.753e-04
Time for diagonalization                   ...    0.020 sec
Threshold for overlap eigenvalues          ... 1.000e-08
Number of eigenvalues below threshold      ... 0
Time for construction of square roots      ...    0.012 sec
Total time needed                          ...    0.032 sec

-------------------
DFT GRID GENERATION
-------------------

General Integration Accuracy     IntAcc      ...  4.340
Radial Grid Type                 RadialGrid  ... Gauss-Chebyshev
Angular Grid (max. acc.)         AngularGrid ... Lebedev-194
Angular grid pruning method      GridPruning ... 3 (G Style)
Weight generation scheme         WeightScheme... Becke
Basis function cutoff            BFCut       ...    1.0000e-11
Integration weight cutoff        WCut        ...    1.0000e-14
Grids for H and He will be reduced by one unit

# of grid points (after initial pruning)     ...  38148 (   0.0 sec)
# of grid points (after weights+screening)   ...  34788 (   0.1 sec)
nearest neighbour list constructed           ...    0.0 sec
Grid point re-assignment to atoms done       ...    0.0 sec
Grid point division into batches done        ...    0.1 sec
Reduced shell lists constructed in    0.2 sec

Total number of grid points                  ...    34788
Total number of batches                      ...      555
Average number of points per batch           ...       62
Average number of grid points per atom       ...     1933
Average number of shells per batch           ...    97.38 (85.42%)
Average number of basis functions per batch  ...   228.85 (88.70%)
Average number of large shells per batch     ...    81.69 (83.89%)
Average number of large basis fcns per batch ...   192.62 (84.17%)
Maximum spatial batch extension              ...   2.57,  2.00,  2.30 au
Average spatial batch extension              ...   0.16,  0.15,  0.16 au

Time for grid setup =    0.232 sec

--------------
SCF ITERATIONS
--------------
ITER       Energy         Delta-E        Max-DP      RMS-DP      [F,P]     Damp
               ***  Starting incremental Fock matrix formation  ***
                      *** Initiating the SOSCF procedure ***
                      *** Re-Reading the Fockian *** 
                      *** Removing any level shift *** 
ITER      Energy       Delta-E        Grad      Rot      Max-DP    RMS-DP
  0   -289.16990689 -289.1699068946  0.000215  0.000215  0.000652  0.000012
               *** Restarting incremental Fock matrix formation ***
  1   -289.16991049  -0.0000035985  0.000052  0.000085  0.000257  0.000004
  2   -289.16991081  -0.0000003197  0.000009  0.000018  0.000044  0.000001
  3   -289.16991082  -0.0000000042  0.000007  0.000006  0.000018  0.000000
                  ***Gradient check signals convergence***
              ***Rediagonalizing the Fockian in SOSCF/NRSCF***

               *****************************************************
               *                     SUCCESS                       *
               *           SCF CONVERGED AFTER   4 CYCLES          *
               *****************************************************

Setting up the final grid:

General Integration Accuracy     IntAcc      ...  5.010
Radial Grid Type                 RadialGrid  ... Gauss-Chebyshev
Angular Grid (max. acc.)         AngularGrid ... Lebedev-434
Angular grid pruning method      GridPruning ... 3 (G Style)
Weight generation scheme         WeightScheme... Becke
Basis function cutoff            BFCut       ...    1.0000e-11
Integration weight cutoff        WCut        ...    1.0000e-14
Grids for H and He will be reduced by one unit

# of grid points (after initial pruning)     ... 144528 (   0.0 sec)
# of grid points (after weights+screening)   ... 130045 (   0.2 sec)
nearest neighbour list constructed           ...    0.0 sec
Grid point re-assignment to atoms done       ...    0.1 sec
Grid point division into batches done        ...    0.9 sec
Reduced shell lists constructed in    1.2 sec

Total number of grid points                  ...   130045
Total number of batches                      ...     2039
Average number of points per batch           ...       63
Average number of grid points per atom       ...     7225
Average number of shells per batch           ...    94.64 (83.01%)
Average number of basis functions per batch  ...   222.68 (86.31%)
Average number of large shells per batch     ...    77.65 (82.05%)
Average number of large basis fcns per batch ...   181.62 (81.56%)
Maximum spatial batch extension              ...   6.36, 10.60, 11.43 au
Average spatial batch extension              ...   0.10,  0.11,  0.11 au

Final grid set up in    1.4 sec
Final integration                            ... done (   0.8 sec)
Change in XC energy                          ...     0.000437727
Integrated number of electrons               ...    49.999997089
Previous integrated no of electrons          ...    50.001065276
Total Energy       :         -289.16947309 Eh           -7868.70140 eV
  Last Energy change         ...   -3.3536e-09  Tolerance :   1.0000e-08
  Last MAX-Density change    ...    5.6231e-06  Tolerance :   1.0000e-07
             **** THE GBW FILE WAS UPDATED (1019_+.gbw) ****
             **** DENSITY FILE WAS UPDATED (1019_+.scfp.tmp) ****
             **** ENERGY FILE WAS UPDATED (1019_+.en.tmp) ****
Total SCF time: 0 days 0 hours 0 min 25 sec 
           ************************************************************
           *              Shut down parallel processing               *
           ************************************************************

-------------------------   --------------------
FINAL SINGLE POINT ENERGY      -289.169473093731
-------------------------   --------------------

                                *** OPTIMIZATION RUN DONE ***

                            ***************************************
                            *     ORCA property calculations      *
                            ***************************************

                                    ---------------------
                                    Active property flags
                                    ---------------------




           ************************************************************
           *        Program running with 8 parallel MPI-processes     *
           *              working on a common directory               *
           ************************************************************

-------------------------------------------------------------------------------
                               ORCA SCF HESSIAN
-------------------------------------------------------------------------------

Hessian of the Kohn-Sham DFT energy:
Kohn-Sham wavefunction type                      ... RKS
Hartree-Fock exchange scaling                    ...    0.250
Number of operators                              ...    1
Number of atoms                                  ...   18
Basis set dimensions                             ...  258
Integral neglect threshold                       ... 2.5e-11
Integral primitive cutoff                        ... 2.5e-12

Setting up DFT Hessian calculations              ... 
Electron density on the grid                     ... found on disk
Electron density on the final grid               ... found on disk
Building xc-kernel on the grid                   ... done   (      0.0 sec)
Building xc-kernel on the final grid             ... done   (      0.0 sec)
                                                     done   (      0.2 sec)

Nuclear repulsion Hessian                        ... done   (      0.0 sec)

----------------------------------------------
Forming right-hand sides of CP-SCF equations     ...
----------------------------------------------
One electron integral derivatives                ... done   (      0.3 sec)
Transforming the overlap derivative matrices     ... done   (      0.1 sec)
Making the Q(x) pseudodensities                  ... done   (      0.1 sec)
Adding the E*S(x)*S(y) terms to the Hessian      ... done   (      0.0 sec)
Calculating energy weighted overlap derivatives  ... done   (      0.0 sec)
Two electron integral derivatives                ... done   (     35.5 sec)
Exchange-correlation integral derivatives        ... done   (     56.6 sec)
tr(F(y)Q(x)) contribution to the Hessian         ... done   (      0.0 sec)
Response fock operator R(S(x))                   ... done   (    140.1 sec)
XC Response fock operator R(S(x))                ... done   (     23.3 sec)
tr(F(y)S(x)) contribution to the Hessian         ... done   (      0.0 sec)
Transforming and finalizing RHSs                 ... done   (      0.1 sec)

----------------------------------------------
Solving the CP-SCF equations                     ...
----------------------------------------------
     CP-SCF ITERATION   0: 
     CP-SCF ITERATION   1:      0.000750883
     CP-SCF ITERATION   2:      0.000066848
     CP-SCF ITERATION   3:      0.000003970
     CP-SCF ITERATION   4:      0.000000221
     CP-SCF ITERATION   5:      0.000000018
     CP-SCF ITERATION   6:      0.000000009

                                                 ... done   (   1083.9 sec)
Forming perturbed density Hessian contributions  ... done   (      0.1 sec)
Making the perturbed densities                   ... done   (      0.1 sec)
2nd integral derivative contribs                 ... done   (    206.1 sec)
Exchange-correlation Hessian                     ... done   (     30.6 sec)
Dipol derivatives                                ... done   (      3.3 sec)

Total SCF Hessian time: 0 days 0 hours 26 min 20 sec 

Writing the Hessian file to the disk             ... done

           ************************************************************
           *              Shut down parallel processing               *
           ************************************************************

-----------------------
VIBRATIONAL FREQUENCIES
-----------------------

   0:         0.00 cm**-1
   1:         0.00 cm**-1
   2:         0.00 cm**-1
   3:         0.00 cm**-1
   4:         0.00 cm**-1
   5:         0.00 cm**-1
   6:       135.36 cm**-1
   7:       206.54 cm**-1
   8:       222.76 cm**-1
   9:       244.40 cm**-1
  10:       274.56 cm**-1
  11:       288.31 cm**-1
  12:       345.04 cm**-1
  13:       377.96 cm**-1
  14:       408.99 cm**-1
  15:       459.74 cm**-1
  16:       547.80 cm**-1
  17:       755.63 cm**-1
  18:       854.68 cm**-1
  19:       896.87 cm**-1
  20:       938.74 cm**-1
  21:       973.06 cm**-1
  22:       979.42 cm**-1
  23:      1005.00 cm**-1
  24:      1052.66 cm**-1
  25:      1085.26 cm**-1
  26:      1159.16 cm**-1
  27:      1234.63 cm**-1
  28:      1262.06 cm**-1
  29:      1327.01 cm**-1
  30:      1359.47 cm**-1
  31:      1404.24 cm**-1
  32:      1407.89 cm**-1
  33:      1428.51 cm**-1
  34:      1463.20 cm**-1
  35:      1470.82 cm**-1
  36:      1479.12 cm**-1
  37:      1489.57 cm**-1
  38:      1499.59 cm**-1
  39:      1503.87 cm**-1
  40:      1637.79 cm**-1
  41:      1668.38 cm**-1
  42:      3050.22 cm**-1
  43:      3060.34 cm**-1
  44:      3113.74 cm**-1
  45:      3124.17 cm**-1
  46:      3138.25 cm**-1
  47:      3144.80 cm**-1
  48:      3148.52 cm**-1
  49:      3181.47 cm**-1
  50:      3297.05 cm**-1
  51:      3484.81 cm**-1
  52:      3538.12 cm**-1
  53:      3855.21 cm**-1


------------
NORMAL MODES
------------

These modes are the cartesian displacements weighted by the diagonal matrix
M(i,i)=1/sqrt(m[i]) where m[i] is the mass of the displaced atom
Thus, these vectors are normalized but *not* orthogonal

                  0          1          2          3          4          5    
      0       0.000000   0.000000   0.000000   0.000000   0.000000   0.000000
      1       0.000000   0.000000   0.000000   0.000000   0.000000   0.000000
      2       0.000000   0.000000   0.000000   0.000000   0.000000   0.000000
      3       0.000000   0.000000   0.000000   0.000000   0.000000   0.000000
      4       0.000000   0.000000   0.000000   0.000000   0.000000   0.000000
      5       0.000000   0.000000   0.000000   0.000000   0.000000   0.000000
      6       0.000000   0.000000   0.000000   0.000000   0.000000   0.000000
      7       0.000000   0.000000   0.000000   0.000000   0.000000   0.000000
      8       0.000000   0.000000   0.000000   0.000000   0.000000   0.000000
      9       0.000000   0.000000   0.000000   0.000000   0.000000   0.000000
     10       0.000000   0.000000   0.000000   0.000000   0.000000   0.000000
     11       0.000000   0.000000   0.000000   0.000000   0.000000   0.000000
     12       0.000000   0.000000   0.000000   0.000000   0.000000   0.000000
[...]
     31      -0.191345  -0.021937   0.257521   0.200262   0.021957   0.024846
     32      -0.099946   0.085284  -0.151663   0.330820   0.018257  -0.010586
     33      -0.233992  -0.044341   0.267383   0.250004   0.019726   0.017506
     34      -0.133679   0.058869   0.003436   0.330038   0.024657   0.015213
     35      -0.226553  -0.122594   0.366376   0.084169   0.006507   0.012713
     36      -0.031223   0.017322  -0.074675   0.078460  -0.013712  -0.004829
     37      -0.013315  -0.008399   0.015619  -0.009332  -0.008087   0.005058
     38      -0.025423   0.022630  -0.103975   0.106843  -0.009669  -0.009519
     39       0.137245  -0.181753  -0.019243   0.113615  -0.038170   0.021618
     40       0.026690  -0.122682  -0.011472   0.038492  -0.020891   0.013339
     41       0.096991  -0.602800  -0.001980   0.102819  -0.036691   0.004335
     42       0.061395  -0.120322  -0.095651   0.008284   0.055885   0.028705
     43       0.124279  -0.622567   0.009410   0.106102  -0.010528   0.005456
     44       0.010340  -0.037804   0.000725   0.010618   0.014804   0.009318
     45      -0.270624   0.145044  -0.006070   0.158435  -0.334656   0.049420
     46      -0.069532   0.016033   0.008015   0.068430   0.273884  -0.671452
     47      -0.005114   0.018470   0.003288  -0.004626  -0.030273   0.097286
     48      -0.142696   0.066288  -0.008463   0.055804   0.531466   0.218270
     49      -0.038184   0.023750   0.000773   0.016557  -0.112956  -0.257789
     50      -0.136972   0.054706  -0.004217   0.085427   0.015474  -0.535579
     51      -0.084413   0.029919  -0.027444   0.077570   0.167690   0.184529
     52      -0.092766   0.037840  -0.030890   0.072319   0.413395   0.273399
     53      -0.168851   0.082560  -0.025368   0.113341  -0.552382   0.142436
                 42         43         44         45         46         47    
      0      -0.005974  -0.041697  -0.002986  -0.001685   0.026895  -0.017464
      1      -0.003748  -0.026922   0.001772   0.003757  -0.025143   0.019372
      2      -0.001561  -0.006171   0.001845   0.000265  -0.073143   0.034581
      3      -0.000511   0.001314  -0.000374   0.001556   0.000414  -0.000625
      4       0.001592   0.000682  -0.000037   0.000356   0.000042   0.000977
      5      -0.000875   0.000563   0.000733   0.000229  -0.000629   0.002200
      6      -0.006090   0.002412   0.006099   0.089323  -0.005231  -0.014280
      7      -0.050590   0.008290   0.002852   0.011391   0.011951   0.021004
      8       0.011855  -0.001208   0.002815   0.012017   0.041389   0.077557
      9       0.000179  -0.000023  -0.000070  -0.000355   0.000024  -0.000036
     10       0.000066   0.000072   0.000158  -0.000072   0.000001  -0.000144
     11       0.000107   0.000015   0.000303  -0.000329   0.000188  -0.000758
     12      -0.000406   0.000406   0.001217  -0.000257  -0.000248   0.000151
     13      -0.000751   0.001339  -0.058180   0.005116  -0.000944   0.004424
     14      -0.000621   0.000965  -0.036387   0.002530  -0.001039  -0.001681
     15      -0.000098   0.000004  -0.000067   0.000065  -0.000134   0.000116
     16       0.000267  -0.000013   0.001868  -0.000424   0.000015  -0.000170
     17       0.000263  -0.000119   0.001999  -0.000629   0.000086   0.000543
     18       0.023457   0.142873  -0.000562  -0.003569   0.165082  -0.079807
     19       0.008027   0.045671   0.000015  -0.000822   0.045790  -0.020952
     20       0.092392   0.562720  -0.002896  -0.011175   0.590924  -0.280413
     21       0.064668   0.439118   0.035920   0.011177  -0.491936   0.279941
     22      -0.035530  -0.238917  -0.017483  -0.007893   0.258704  -0.144924
     23      -0.042143  -0.281508  -0.021967  -0.007701   0.297404  -0.170072
     24      -0.016146  -0.101397   0.001416   0.006446   0.005814   0.009941
     25       0.071689   0.502273  -0.001184  -0.038450  -0.006156  -0.065995
     26      -0.030533  -0.207902   0.001410   0.016341  -0.014546   0.034382
     27      -0.142029   0.018415  -0.010178  -0.099212  -0.102572  -0.191436
     28      -0.001768   0.000465   0.000370   0.007248   0.005599   0.011261
     29      -0.475312   0.059667  -0.039022  -0.404822  -0.341919  -0.633881
     30       0.574392  -0.096386  -0.051364  -0.531220  -0.055266  -0.067283
     31       0.411969  -0.071341  -0.038115  -0.395525  -0.036210  -0.042630
     32       0.083339  -0.013559  -0.007083  -0.077815   0.000838   0.004250
     33      -0.354951   0.048552  -0.013272  -0.436250   0.218348   0.429505
     34       0.174095  -0.024193   0.008281   0.247071  -0.111463  -0.224257
     35       0.255494  -0.033890   0.012223   0.337457  -0.151346  -0.298571
     36      -0.000777   0.000078  -0.000208   0.000437   0.001543  -0.001294
     37      -0.000914  -0.001397   0.000277  -0.000068   0.002854   0.001091
     38       0.001325  -0.002609   0.000258   0.002803   0.001362  -0.003999
     39       0.000387  -0.000550  -0.047250   0.003588  -0.001458   0.004243
     40       0.008345  -0.019129   0.760799  -0.059996   0.010906  -0.054148
     41      -0.002932   0.005250  -0.186032   0.014611  -0.003512   0.011820
     42       0.001058  -0.001632   0.038592  -0.002427   0.000731   0.001207
     43      -0.002105   0.003138  -0.084806   0.006232  -0.002527  -0.001472
     44       0.011262  -0.018892   0.601395  -0.042978   0.014847   0.006026
     45       0.000132   0.000179   0.004845  -0.001094   0.000610  -0.000703
     46      -0.001480   0.000343  -0.001721   0.002299   0.000300  -0.000475
     47      -0.003179   0.001624  -0.025887   0.008022   0.000058  -0.007756
     48       0.002976  -0.000463  -0.000714  -0.003498   0.000162  -0.000365
     49      -0.001337   0.000030  -0.011572   0.002933   0.000743   0.000945
     50       0.000259   0.000084   0.008384  -0.000397   0.000144   0.000053
     51       0.000027  -0.000871  -0.002317   0.000603   0.000320  -0.001075
     52       0.001704   0.000030  -0.004740  -0.001709  -0.000809   0.000732
     53      -0.000165   0.000162  -0.004060   0.000393  -0.000194   0.000263
                 48         49         50         51         52         53    
      0      -0.042748  -0.001901  -0.000095  -0.000018  -0.000037   0.000346
      1       0.069938   0.003124   0.000048  -0.000095   0.000034  -0.000071
      2      -0.043768  -0.003475  -0.000397   0.000073   0.000003  -0.000319
      3      -0.000952  -0.000779  -0.000339   0.000324   0.000463  -0.001252
      4       0.001230   0.001219   0.000067   0.000240  -0.000016   0.000667
      5      -0.000963  -0.001226   0.001385  -0.000183   0.000051   0.000180
      6      -0.002036   0.000289  -0.000639   0.000024  -0.000000   0.000133
      7      -0.002311  -0.001158  -0.000141   0.000033  -0.000084  -0.000242
      8      -0.007001  -0.003597   0.000073   0.000046  -0.000055  -0.000335
      9       0.000166   0.000011  -0.000014   0.000092  -0.000008  -0.042604
     10      -0.000197   0.000026  -0.000045   0.000030   0.000056   0.022640
     11       0.000432   0.000660  -0.000776   0.000144  -0.000070   0.040143
     12       0.000479  -0.006828  -0.002995  -0.000105   0.000104   0.000151
     13      -0.002659   0.057067  -0.000488  -0.001223   0.001373  -0.000230
     14       0.004998  -0.077420  -0.005322   0.001158  -0.000463  -0.000238
     15       0.000103   0.000173  -0.002028  -0.043828  -0.037703   0.000371
     16      -0.000024  -0.001414  -0.009630  -0.021764   0.071630  -0.000021
     17      -0.000224   0.004099  -0.061019   0.042622  -0.006272  -0.000477
     18       0.100799   0.009285  -0.002717   0.000338   0.000028  -0.001631
     19       0.047896   0.004039  -0.001157   0.000266  -0.000046  -0.000774
     20       0.408150   0.033427  -0.002227   0.000447   0.000014  -0.001017
     21       0.273719   0.008666   0.003502   0.001097   0.000249  -0.001018
     22      -0.135391  -0.004502  -0.000313  -0.000300  -0.000292   0.001730
     23      -0.187327  -0.005393  -0.000922  -0.000700  -0.000183   0.001134
     24       0.138389   0.005740   0.000297  -0.000351   0.000054   0.000265
     25      -0.749227  -0.040004  -0.000149  -0.000264   0.000026   0.000309
     26       0.305058   0.015853   0.000815  -0.000052   0.000007   0.000218
     27       0.020311   0.010701  -0.001163   0.000546  -0.000418  -0.000678
     28      -0.001922  -0.001540   0.001057  -0.000097  -0.000038   0.001530
     29       0.071764   0.034700  -0.003177   0.000777  -0.000105  -0.001303
     30       0.023106   0.003880   0.004479   0.001413  -0.000695   0.000047
     31       0.015889   0.002046   0.004210  -0.000438   0.000589  -0.000203
     32       0.002427  -0.000403   0.001192  -0.000875   0.000812   0.000282
     33      -0.017934  -0.015711   0.005038  -0.000778   0.000535  -0.001110
     34       0.007395   0.007802  -0.002980  -0.000279   0.000356  -0.000322
     35       0.011009   0.011537  -0.002632   0.000223  -0.000178   0.001058
     36       0.000368   0.001064  -0.007216   0.003557   0.000610   0.685592
     37       0.000231  -0.000891   0.000236  -0.000648  -0.000384  -0.364360
     38      -0.002003   0.000771  -0.000927  -0.001183   0.000062  -0.627066
     39       0.000804   0.040296   0.003309   0.003791  -0.000081  -0.000092
     40       0.023731  -0.587217  -0.000953   0.012578  -0.017870   0.000412
     41      -0.006124   0.130806   0.001733  -0.002802   0.002958  -0.000155
     42      -0.003930   0.043080   0.010419  -0.000704   0.000289   0.000378
     43       0.006680  -0.094289  -0.004509   0.003050  -0.001565  -0.000034
     44      -0.052942   0.780564   0.045512  -0.009572   0.003773  -0.000611
     45      -0.000184   0.009815  -0.080964   0.005641  -0.004135  -0.001444
     46       0.000235  -0.001098   0.107251  -0.026264   0.009711   0.001612
     47       0.002509  -0.040246   0.963849  -0.180470  -0.028876   0.004895
     48      -0.000333  -0.004482   0.016758   0.101213  -0.097455  -0.000493
     49      -0.001250   0.012725   0.130857   0.689679  -0.564572  -0.001206
     50       0.000400  -0.009774  -0.065344  -0.306516   0.261120   0.000786
     51       0.000102  -0.005051   0.125133   0.489118   0.618757  -0.001328
     52       0.000407   0.004222  -0.092915  -0.362880  -0.437758   0.000773
     53       0.000212   0.002094  -0.026866  -0.106863  -0.145593  -0.000270


-----------
IR SPECTRUM
-----------

 Mode    freq (cm**-1)   T**2         TX         TY         TZ
-------------------------------------------------------------------
   6:       135.36   14.281337  ( -0.061959  -3.000543   2.296572)
   7:       206.54   22.131855  (  0.431500   4.679936  -0.209436)
   8:       222.76    0.625900  ( -0.256392   0.082959   0.743829)
   9:       244.40   12.946466  (  2.866181   0.363563  -2.144596)
  10:       274.56   13.837560  ( -2.883761  -1.338766   1.931111)
  11:       288.31   83.401633  ( -1.696444  -8.941371   0.758678)
  12:       345.04    1.766354  (  0.672714   0.663871   0.934391)
  13:       377.96   34.310948  (  5.007341   1.326521  -2.734562)
  14:       408.99   10.947892  ( -3.122767  -0.261368   1.062028)
  15:       459.74    7.704784  (  0.072829  -2.517690  -1.166497)
  16:       547.80    7.066247  ( -1.268354   0.280872  -2.319189)
  17:       755.63    4.805391  ( -1.851120   0.575597  -1.023443)
  18:       854.68    8.482995  ( -1.970760  -1.975948   0.833505)
  19:       896.87   19.972663  ( -0.006016   0.782419   4.400051)
  20:       938.74    0.912100  (  0.882408   0.362932  -0.041672)
  21:       973.06   10.558960  ( -3.171432  -0.636571   0.309446)
  22:       979.42   17.178664  ( -0.722619   1.077772  -3.936355)
  23:      1005.00    6.815696  ( -2.459731   0.837376   0.253414)
  24:      1052.66   93.530561  (  1.414953  -0.636465  -9.545857)
  25:      1085.26   22.207944  (  2.781932  -3.491312  -1.509814)
  26:      1159.16   26.473356  ( -2.563980   0.628260  -4.416407)
  27:      1234.63   43.798276  (  4.345626  -0.008314   4.991367)
  28:      1262.06    5.476817  ( -1.802057  -1.490392   0.090227)
  29:      1327.01    6.466030  (  2.422899  -0.730419  -0.249154)
  30:      1359.47   30.868820  (  1.904952  -2.477835   4.593507)
  31:      1404.24   14.114269  ( -2.661942   2.344914  -1.236815)
  32:      1407.89   20.084831  ( -2.411733  -3.766899   0.280800)
  33:      1428.51    8.173032  ( -2.037307   1.192475  -1.612580)
  34:      1463.20   13.298064  ( -3.564871  -0.599187  -0.480345)
  35:      1470.82  122.297918  ( 10.365253   2.598770   2.847078)
  36:      1479.12   45.654851  ( -6.246871  -2.395598  -0.944758)
  37:      1489.57   21.775824  (  4.157729  -2.077013  -0.418484)
  38:      1499.59    3.429920  (  1.596801  -0.410816  -0.843432)
  39:      1503.87   40.162754  (  2.675340   2.376649   5.230377)
  40:      1637.79   36.703667  (  1.379463   4.097042  -4.244408)
  41:      1668.38   40.126725  (  4.551629  -3.792495  -2.241959)
  42:      3050.22   10.779904  ( -2.356756  -2.278914   0.179310)
  43:      3060.34    0.284203  ( -0.339207  -0.392927  -0.121447)
  44:      3113.74    0.715836  (  0.436331  -0.542332  -0.480965)
  45:      3124.17   14.644171  (  3.477313   1.558556   0.351237)
  46:      3138.25    1.213840  (  0.685697  -0.265766  -0.820383)
  47:      3144.80    6.541278  ( -0.403150   0.980028   2.327723)
  48:      3148.52    5.257987  ( -0.938643   1.876558  -0.924915)
  49:      3181.47    0.496035  ( -0.166123   0.338041  -0.595119)
  50:      3297.05  125.439047  ( -3.624706   1.409334  10.503063)
  51:      3484.81   99.372085  (  7.893409   2.017644  -5.744153)
  52:      3538.12  102.084336  (  5.528044  -8.438207   0.567213)
  53:      3855.21   90.519018  (  4.426789  -2.610870  -8.006617)

The first frequency considered to be a vibration is 6
The total number of vibrations considered is 48


--------------------------
THERMOCHEMISTRY AT 298.15K
--------------------------

Temperature         ... 298.15 K
Pressure            ... 1.00 atm
Total Mass          ... 90.15 AMU

Throughout the following assumptions are being made:
  (1) The electronic state is orbitally nondegenerate
  (2) There are no thermally accessible electronically excited states
  (3) Hindered rotations indicated by low frequency modes) are not
      treated as such but are treated as vibrations and this may
      case some error
  (4) All equations used are the standard statistical mechanics
      equations for an ideal gas
  (5) All vibrations are strinctly harmonic


------------
INNER ENERGY
------------

The inner energy is: U= E(el) + E(ZPE) + E(vib) + E(rot) + E(trans)
    E(el)   - is the total energy from the electronic structure calculation
              = E(kin-el) + E(nuc-el) + E(el-el) + E(nuc-nuc)
    E(ZPE)  - the the zero temperature vibrational energy from the frequency calculation
    E(vib)  - the the finite temperature correction to E(ZPE) due to population
              of excietd vibrational states
    E(rot)  - is the rotational thermal energy
    E(trans)- is the translational thermal energy

Summary of contributions to the inner energy U:
Electronic energy                ...   -289.16947309 Eh
Zero point energy                ...      0.16854986 Eh     105.77 kcal/mol
Thermal vibrational correction   ...      0.00512867 Eh       3.22 kcal/mol
Thermal rotational correction    ...      0.00141627 Eh       0.89 kcal/mol
Thermal translational correction ...      0.00141627 Eh       0.89 kcal/mol
-----------------------------------------------------------------------
Total thermal energy                   -288.99296202 Eh


Summary of corrections to the electronic energy:
(perhaps to be used in another calculation)
Total thermal correction                  0.00796121 Eh       5.00 kcal/mol
Non-thermal (ZPE) correction              0.16854986 Eh     105.77 kcal/mol
-----------------------------------------------------------------------
Total correction                          0.17651108 Eh     110.76 kcal/mol


--------
ENTHALPY
--------

The enthalpy is H = U + kB*T
                kB is Boltzmann's constant
Total free energy                 ...   -288.99296202 Eh 
Thermal Enthalpy correction       ...      0.00094421 Eh       0.59 kcal/mol
-----------------------------------------------------------------------
Total Enthalpy                    ...   -288.99201781 Eh


-------
ENTROPY
-------

The entropy contributions are T*S = T*(S(el)+S(vib)+S(rot)+S(trans)
     S(el)   - electronic entropy
     S(vib)  - vibrational entropy
     S(rot)  - rotational entropy
     S(trans)- translational entropy
The entropies will be listed as mutliplied by the temperature to get
units of energy

Electronic entropy                ...      0.00000000 Eh      0.00 kcal/mol
Vibrational entropy               ...      0.00836164 Eh      5.25 kcal/mol
Rotational entropy                ...      0.01165733 Eh      7.32 kcal/mol
Translational entropy             ...      0.01872432 Eh     11.75 kcal/mol
-----------------------------------------------------------------------
Final entropy term                ...      0.03874329 Eh     24.31 kcal/mol


CAUTION: The rotational entropy is not quite correctly treated here
         because it includes a symmetry number that is not yet correctly
         implemented in ORCA!
For a nonlinear molecule the correct rotational entropy is:
    S(rot) = R*(ln(qrot/sn)+1.5)
    R    = 8.31441 J/mol/K = 1.987191683e-3 kcal/mol/K
    qrot = 154062.9192003
    sn is the rotational symmetry number. We have assumed 3 here
       if it is different for your molecule then you should correct
       the printed rotational entropy by manually evaluating the equation
       as given above

For convenience we print out the resulting values for sn=1 - 12:
 sn= 1  qrot/sn=  154062.9192 T*S(rot)=     7.97 kcal/mol T*S(tot)=    24.96 kcal/mol
 sn= 2  qrot/sn=   77031.4596 T*S(rot)=     7.56 kcal/mol T*S(tot)=    24.55 kcal/mol
 sn= 3  qrot/sn=   51354.3064 T*S(rot)=     7.32 kcal/mol T*S(tot)=    24.31 kcal/mol
 sn= 4  qrot/sn=   38515.7298 T*S(rot)=     7.14 kcal/mol T*S(tot)=    24.14 kcal/mol
 sn= 5  qrot/sn=   30812.5838 T*S(rot)=     7.01 kcal/mol T*S(tot)=    24.01 kcal/mol
 sn= 6  qrot/sn=   25677.1532 T*S(rot)=     6.90 kcal/mol T*S(tot)=    23.90 kcal/mol
 sn= 7  qrot/sn=   22008.9885 T*S(rot)=     6.81 kcal/mol T*S(tot)=    23.81 kcal/mol
 sn= 8  qrot/sn=   19257.8649 T*S(rot)=     6.73 kcal/mol T*S(tot)=    23.73 kcal/mol
 sn= 9  qrot/sn=   17118.1021 T*S(rot)=     6.66 kcal/mol T*S(tot)=    23.66 kcal/mol
 sn=10  qrot/sn=   15406.2919 T*S(rot)=     6.60 kcal/mol T*S(tot)=    23.60 kcal/mol
 sn=11  qrot/sn=   14005.7199 T*S(rot)=     6.55 kcal/mol T*S(tot)=    23.54 kcal/mol
 sn=12  qrot/sn=   12838.5766 T*S(rot)=     6.49 kcal/mol T*S(tot)=    23.49 kcal/mol


-------------------
GIBBS FREE ENTHALPY
-------------------

The Gibbs free enthalpy is G = H - T*S

Total enthalpy                    ...   -288.99201781 Eh 
Total entropy correction          ...     -0.03874329 Eh    -24.31 kcal/mol
-----------------------------------------------------------------------
Final Gibbs free enthalpy         ...   -289.03076110 Eh

For completeness - the Gibbs free enthalpy minus the electronic energy
G-E(el)                           ...      0.13871199 Eh     87.04 kcal/mol


Timings for individual modules:

Sum of individual times         ...     1765.350 sec (=  29.422 min)
GTO integral calculation        ...        6.192 sec (=   0.103 min)   0.4 %
SCF iterations                  ...      117.022 sec (=   1.950 min)   6.6 %
SCF Gradient evaluation         ...       59.482 sec (=   0.991 min)   3.4 %
Geometry relaxation             ...        0.195 sec (=   0.003 min)   0.0 %
Analytical frequency calculation...     1582.458 sec (=  26.374 min)  89.6 %
                             ****ORCA TERMINATED NORMALLY****
TOTAL RUN TIME: 0 days 0 hours 29 minutes 27 seconds 139 msec
