
                                 *****************
                                 * O   R   C   A *
                                 *****************

           --- An Ab Initio, DFT and Semiempirical electronic structure package ---

                  #######################################################
                  #                        -***-                        #
                  #  Department of molecular theory and spectroscopy    #
                  #              Directorship: Frank Neese              #
                  # Max Planck Institute for Chemical Energy Conversion #
                  #                  D-45470 Muelheim/Ruhr              #
                  #                       Germany                       #
                  #                                                     #
                  #                  All rights reserved                #
                  #                        -***-                        #
                  #######################################################


                         Program Version 3.0.3 - RELEASE   -


 With contributions from (in alphabetic order):
   Ute Becker             : Parallelization
   Dmytro Bykov           : SCF Hessian
   Dmitry Ganyushin       : Spin-Orbit,Spin-Spin,Magnetic field MRCI
   Andreas Hansen         : Spin unrestricted coupled pair/coupled cluster methods
   Dimitrios Liakos       : Extrapolation schemes; parallel MDCI
   Robert Izsak           : Overlap fitted RIJCOSX, COSX-SCS-MP3
   Christian Kollmar      : KDIIS, OOCD, Brueckner-CCSD(T), CCSD density
   Simone Kossmann        : Meta GGA functionals, TD-DFT gradient, OOMP2, MP2 Hessian
   Taras Petrenko         : DFT Hessian,TD-DFT gradient, ASA and ECA modules, normal mode analysis, Resonance Raman, ABS, FL, XAS/XES, NRVS
   Christoph Reimann      : Effective Core Potentials
   Michael Roemelt        : Restricted open shell CIS
   Christoph Riplinger    : Improved optimizer, TS searches, QM/MM, DLPNO-CCSD
   Barbara Sandhoefer     : DKH picture change effects
   Igor Schapiro          : Molecular dynamics
   Kantharuban Sivalingam : CASSCF convergence, NEVPT2
   Boris Wezisla          : Elementary symmetry handling
   Frank Wennmohs         : Technical directorship


 We gratefully acknowledge several colleagues who have allowed us to
 interface, adapt or use parts of their codes:
   Stefan Grimme, W. Hujo, H. Kruse, T. Risthaus : VdW corrections, initial TS optimization,
                                                   DFT functionals, gCP
   Ed Valeev                                     : LibInt (2-el integral package), F12 methods
   Garnet Chan, S. Sharma, R. Olivares           : DMRG
   Ulf Ekstrom                                   : XCFun DFT Library
   Mihaly Kallay                                 : mrcc  (arbitrary order and MRCC methods)
   Andreas Klamt, Michael Diedenhofen            : otool_cosmo (COSMO solvation model)
   Frank Weinhold                                : gennbo (NPA and NBO analysis)
   Christopher J. Cramer and Donald G. Truhlar   : smd solvation model


 Your calculation uses the libint2 library for the computation of 2-el integrals
 For citations please refer to: http://libint.valeyev.net

 This ORCA versions uses:
   CBLAS   interface :  Fast vector & matrix operations
   LAPACKE interface :  Fast linear algebra routines
   SCALAPACK package :  Parallel linear algebra routines


Your calculation utilizes the basis: Ahlrichs-TZV
Cite in your paper:
H - Kr: A. Schaefer, H. Horn and R. Ahlrichs, J. Chem. Phys. 97, 2571 (1992).

The def2-TZV basis will be loaded
Cite in your paper:
 	F. Weigend, R. Ahlrichs, Phys. Chem. Chem. Phys. 2005, 7, 3297.

================================================================================
                                        WARNINGS
                       Please study these warnings very carefully!
================================================================================
Now building the actual basis set
WARNING: Geometry optimizations can change the point-group symmetry!

WARNING: Geometry Optimization
  ===> : Switching off AutoStart
         For restart on a previous wavefunction, please use MOREAD


INFO   : the flag for use of LIBINT has been found!

================================================================================
                                       INPUT FILE
================================================================================
NAME = 1038_+.inp
|  1> ! NORI PBE0 def2-TZVP UseSym TightOPT Freq TightSCF Grid3 FinalGrid5 XYZFile
|  2> % pal
|  3>     nprocs 8
|  4> end
|  5> %method
|  6>     SymThresh 5.0e-2
|  7> end
|  8> % geom 
|  9>     MaxIter 10
| 10> end 
| 11> % maxcore 2000
| 12> % output
| 13>     printlevel mini
| 14>     print[ P_Basis ] 0
| 15>     print[ P_SCFInfo ] 1
| 16>     print[ P_SCFIterInfo ] 1
| 17>     print[ P_OrbEn ] 0
| 18>     print[ P_Cartesian ] 0
| 19> end
| 20> % elprop
| 21>     Dipole false
| 22> end
| 23> *xyz 1 1
| 24>  C        2.2568242625    -1.3512970424    -0.6090028183 
| 25>  C        2.7272183177     0.0275493899    -0.3426076090 
| 26>  O        2.6550634426     0.9627480521    -1.0975866883 
| 27>  C        3.3953418511     0.2994079615     1.0035091362 
| 28>  C        4.7739828898     0.8373990682     0.9531431246 
| 29>  N        3.6326711518     1.7436168430     1.1505502432 
| 30>  H        1.8968921181    -1.4352623422    -1.6319673158 
| 31>  H        1.4512250281    -1.6028326483     0.0893755278 
| 32>  H        3.0636737631    -2.0692816404    -0.4294068637 
| 33>  H        3.0640793455    -0.2179669235     1.8957692205 
| 34>  H        5.2543481523     0.9480891862    -0.0117831081 
| 35>  H        5.4192720845     0.7245813147     1.8151171618 
| 36>  H        3.4933981326     2.1957830877     2.0476872016 
| 37>  H        3.3096894603     2.2426356935     0.3096827875 
| 38> *
| 39> 
| 40>                          ****END OF INPUT****
================================================================================

The point group is C1 - hence turning off symmetry
If this is a round-off problem, please increase the symmetry
        detection tolerance (%method SymThresh)


                       *****************************
                       * Geometry Optimization Run *
                       *****************************

Geometry optimization settings:
Update method            Update   .... BFGS
Choice of coordinates    CoordSys .... Redundant Internals
Initial Hessian          InHess   .... Almoef's Model

Convergence Tolerances:
Energy Change            TolE     ....  1.0000e-06 Eh
Max. Gradient            TolMAXG  ....  1.0000e-04 Eh/bohr
RMS Gradient             TolRMSG  ....  3.0000e-05 Eh/bohr
Max. Displacement        TolMAXD  ....  1.0000e-03 bohr
RMS Displacement         TolRMSD  ....  6.0000e-04 bohr

------------------------------------------------------------------------------
                        ORCA OPTIMIZATION COORDINATE SETUP
------------------------------------------------------------------------------

The optimization will be done in new redundant internal coordinates
Making redundant internal coordinates   ...  (new redundants) done
Evaluating the initial hessian          ...  (Almloef) done
Evaluating the coordinates              ...  done
Calculating the B-matrix                .... done
Calculating the G-matrix                .... done
Diagonalizing the G-matrix              .... done
The first mode is                       ....   41
The number of degrees of freedom        ....   36

    -----------------------------------------------------------------
                    Redundant Internal Coordinates


    -----------------------------------------------------------------
         Definition                    Initial Value    Approx d2E/dq
    -----------------------------------------------------------------
      1. B(C   1,C   0)                  1.4810         0.447202   
      2. B(O   2,C   1)                  1.2041         1.107917   
      3. B(C   3,C   1)                  1.5272         0.377443   
      4. B(C   4,C   3)                  1.4808         0.447664   
      5. B(N   5,C   4)                  1.4706         0.416115   
      6. B(N   5,C   3)                  1.4709         0.415652   
      7. B(H   6,C   0)                  1.0877         0.363176   
      8. B(H   7,C   0)                  1.0954         0.352973   
      9. B(H   8,C   0)                  1.0949         0.353702   
     10. B(H   9,C   3)                  1.0833         0.369073   
     11. B(H  10,C   4)                  1.0836         0.368731   
     12. B(H  11,C   4)                  1.0826         0.369959   
     13. B(H  12,N   5)                  1.0143         0.426002   
     14. B(H  13,N   5)                  1.0298         0.402418   
     15. A(H   6,C   0,H   7)          109.7862         0.290315   
     16. A(C   1,C   0,H   6)          110.2515         0.334570   
     17. A(H   7,C   0,H   8)          106.6660         0.289115   
     18. A(H   6,C   0,H   8)          110.3352         0.290409   
     19. A(C   1,C   0,H   7)          109.4315         0.332991   
     20. A(C   1,C   0,H   8)          110.3013         0.333105   
     21. A(O   2,C   1,C   3)          116.1441         0.437813   
     22. A(C   0,C   1,O   2)          126.2486         0.451462   
     23. A(C   0,C   1,C   3)          117.5953         0.375420   
     24. A(C   1,C   3,H   9)          120.4772         0.326186   
     25. A(C   4,C   3,N   5)           59.7657         0.379399   
     26. A(N   5,C   3,H   9)          115.8434         0.329424   
     27. A(C   4,C   3,H   9)          119.0937         0.335525   
     28. A(C   1,C   3,C   4)          116.2323         0.375487   
     29. A(C   1,C   3,N   5)          109.4797         0.368398   
     30. A(C   3,C   4,N   5)           59.7860         0.379472   
     31. A(H  10,C   4,H  11)          117.0919         0.293169   
     32. A(N   5,C   4,H  11)          114.8280         0.329616   
     33. A(C   3,C   4,H  11)          119.3397         0.335658   
     34. A(N   5,C   4,H  10)          113.6179         0.329435   
     35. A(C   3,C   4,H  10)          118.6958         0.335473   
     36. A(C   4,N   5,H  13)          115.6209         0.331382   
     37. A(C   3,N   5,H  13)          110.0938         0.331321   
     38. A(C   4,N   5,H  12)          120.0007         0.334527   
     39. A(C   3,N   5,H  12)          120.2633         0.334465   
     40. A(H  12,N   5,H  13)          117.5920         0.299023   
     41. A(C   3,N   5,C   4)           60.4483         0.372284   
     42. D(O   2,C   1,C   0,H   7)   -116.3289         0.014750   
     43. D(C   3,C   1,C   0,H   7)     64.9825         0.014750   
     44. D(O   2,C   1,C   0,H   8)    126.6215         0.014750   
     45. D(O   2,C   1,C   0,H   6)      4.5193         0.014750   
     46. D(C   3,C   1,C   0,H   8)    -52.0671         0.014750   
     47. D(C   3,C   1,C   0,H   6)   -174.1693         0.014750   
     48. D(C   4,C   3,C   1,O   2)    -56.6663         0.010640   
     49. D(H   9,C   3,C   1,O   2)    146.5586         0.010640   
     50. D(H   9,C   3,C   1,C   0)    -34.6195         0.010640   
     51. D(N   5,C   3,C   1,O   2)      8.4275         0.010640   
     52. D(N   5,C   3,C   1,C   0)   -172.7506         0.010640   
     53. D(C   4,C   3,C   1,C   0)    122.1556         0.010640   
     54. D(N   5,C   4,C   3,H   9)   -104.6604         0.015831   
     55. D(N   5,C   4,C   3,C   1)     98.2274         0.015831   
     56. D(H  11,C   4,C   3,H   9)     -1.3587         0.015831   
     57. D(H  10,C   4,C   3,C   1)     -3.8811         0.015831   
     58. D(H  11,C   4,C   3,N   5)    103.3017         0.015831   
     59. D(H  11,C   4,C   3,C   1)   -158.4709         0.015831   
     60. D(H  10,C   4,C   3,H   9)    153.2311         0.015831   
     61. D(H  10,C   4,C   3,N   5)   -102.1085         0.015831   
     62. D(C   3,N   5,C   4,H  11)   -110.8140         0.015816   
     63. D(C   3,N   5,C   4,H  10)    110.5977         0.015816   
     64. D(H  13,N   5,C   3,H   9)   -141.1604         0.015781   
     65. D(H  13,N   5,C   3,C   4)    108.7770         0.015781   
     66. D(H  13,N   5,C   3,C   1)     -0.8874         0.015781   
     67. D(H  12,N   5,C   3,H   9)      0.5110         0.015781   
     68. D(H  12,N   5,C   3,C   4)   -109.5515         0.015781   
     69. D(H  12,N   5,C   3,C   1)    140.7840         0.015781   
     70. D(C   4,N   5,C   3,H   9)    110.0625         0.015781   
     71. D(H  12,N   5,C   4,C   3)    109.9758         0.015816   
     72. D(C   4,N   5,C   3,C   1)   -109.6645         0.015781   
     73. D(H  13,N   5,C   4,H  11)    149.6247         0.015816   
     74. D(H  13,N   5,C   4,H  10)     11.0363         0.015816   
     75. D(H  13,N   5,C   4,C   3)    -99.5613         0.015816   
     76. D(H  12,N   5,C   4,H  11)     -0.8382         0.015816   
     77. D(H  12,N   5,C   4,H  10)   -139.4265         0.015816   
    -----------------------------------------------------------------

Number of atoms                         .... 14
Number of degrees of freedom            .... 77

         *************************************************************
         *                GEOMETRY OPTIMIZATION CYCLE   1            *
         *************************************************************


           ************************************************************
           *        Program running with 8 parallel MPI-processes     *
           *              working on a common directory               *
           ************************************************************
           ************************************************************
           *              Shut down parallel processing               *
           ************************************************************


           ************************************************************
           *        Program running with 8 parallel MPI-processes     *
           *              working on a common directory               *
           ************************************************************
------------
SCF SETTINGS
------------
Hamiltonian:
 Density Functional     Method          .... DFT(GTOs)
 Exchange Functional    Exchange        .... PBE
   PBE kappa parameter  XKappa          ....  0.804000
 Correlation Functional Correlation     .... PBE
 LDA part of GGA corr.  LDAOpt          .... PW91-LDA
 Gradients option       PostSCFGGA      .... off
 Hybrid DFT is turned on
   Fraction HF Exchange ScalHFX         ....  0.250000
   Scaling of DF-GGA-X  ScalDFX         ....  0.750000
   Scaling of DF-GGA-C  ScalDFC         ....  1.000000
   Scaling of DF-LDA-C  ScalLDAC        ....  1.000000
   Perturbative correction              ....  0.000000
   NL short-range parameter             ....  6.900000


General Settings:
 Integral files         IntName         .... 1038_+
 Hartree-Fock type      HFTyp           .... RHF
 Total Charge           Charge          ....    1
 Multiplicity           Mult            ....    1
 Number of Electrons    NEL             ....   46
 Basis Dimension        Dim             ....  234
 Nuclear Repulsion      ENuc            ....    245.2458702854 Eh

Convergence Acceleration:
 DIIS                   CNVDIIS         .... on
   Start iteration      DIISMaxIt       ....    12
   Startup error        DIISStart       ....  0.200000
   # of expansion vecs  DIISMaxEq       ....     5
   Bias factor          DIISBfac        ....   1.050
   Max. coefficient     DIISMaxC        ....  10.000
 Newton-Raphson         CNVNR           .... off
 SOSCF                  CNVSOSCF        .... on
   Start iteration      SOSCFMaxIt      ....   150
   Startup grad/error   SOSCFStart      ....  0.003300
 Level Shifting         CNVShift        .... on
   Level shift para.    LevelShift      ....    0.2500
   Turn off err/grad.   ShiftErr        ....    0.0010
 Zerner damping         CNVZerner       .... off
 Static damping         CNVDamp         .... on
   Fraction old density DampFac         ....    0.7000
   Max. Damping (<1)    DampMax         ....    0.9800
   Min. Damping (>=0)   DampMin         ....    0.0000
   Turn off err/grad.   DampErr         ....    0.1000
 Fernandez-Rico         CNVRico         .... off

SCF Procedure:
 Maximum # iterations   MaxIter         ....   125
 SCF integral mode      SCFMode         .... Direct
   Integral package                     .... LIBINT
 Reset frequeny         DirectResetFreq ....    20
 Integral Threshold     Thresh          ....  2.500e-11 Eh
 Primitive CutOff       TCut            ....  2.500e-12 Eh

Convergence Tolerance:
 Convergence Check Mode ConvCheckMode   .... Total+1el-Energy
 Energy Change          TolE            ....  1.000e-08 Eh
 1-El. energy change                    ....  1.000e-05 Eh
 Orbital Gradient       TolG            ....  1.000e-05
 Orbital Rotation angle TolX            ....  1.000e-05
 DIIS Error             TolErr          ....  5.000e-07


Diagonalization of the overlap matrix:
Smallest eigenvalue                        ... 1.812e-04
Time for diagonalization                   ...    0.018 sec
Threshold for overlap eigenvalues          ... 1.000e-08
Number of eigenvalues below threshold      ... 0
Time for construction of square roots      ...    0.009 sec
Total time needed                          ...    0.028 sec

-------------------
DFT GRID GENERATION
-------------------

General Integration Accuracy     IntAcc      ...  4.340
Radial Grid Type                 RadialGrid  ... Gauss-Chebyshev
Angular Grid (max. acc.)         AngularGrid ... Lebedev-194
Angular grid pruning method      GridPruning ... 3 (G Style)
Weight generation scheme         WeightScheme... Becke
Basis function cutoff            BFCut       ...    1.0000e-11
Integration weight cutoff        WCut        ...    1.0000e-14
Grids for H and He will be reduced by one unit

# of grid points (after initial pruning)     ...  32028 (   0.0 sec)
# of grid points (after weights+screening)   ...  29731 (   0.0 sec)
nearest neighbour list constructed           ...    0.0 sec
Grid point re-assignment to atoms done       ...    0.0 sec
Grid point division into batches done        ...    0.1 sec
Reduced shell lists constructed in    0.1 sec

Total number of grid points                  ...    29731
Total number of batches                      ...      471
Average number of points per batch           ...       63
Average number of grid points per atom       ...     2124
Average number of shells per batch           ...    76.00 (77.55%)
Average number of basis functions per batch  ...   188.37 (80.50%)
Average number of large shells per batch     ...    64.07 (84.30%)
Average number of large basis fcns per batch ...   159.77 (84.82%)
Maximum spatial batch extension              ...  13.85, 15.72, 13.92 au
Average spatial batch extension              ...   0.24,  0.26,  0.24 au

Time for grid setup =    0.171 sec

Loading Hartree-Fock densities                     ... done
Calculating cut-offs                               ... done
Setting up the integral package                    ... done
Initializing the effective Hamiltonian             ... done
Starting the Coulomb interaction                   ... done (   0.0 sec)
Reading the grid                                   ... done
Mapping shells                                     ... done
Starting the XC term evaluation                    ... done (   0.2 sec)
  promolecular density results
     # of electrons  =     46.996741468
     EX              =    -37.556887164
     EC              =     -1.556623861
     EX+EC           =    -39.113511025
Transforming the Hamiltonian                       ... done (   0.0 sec)
Diagonalizing the Hamiltonian                      ... done (   0.0 sec)
Back transforming the eigenvectors                 ... done (   0.0 sec)
Now organizing SCF variables                       ... done
--------------
SCF ITERATIONS
--------------
ITER       Energy         Delta-E        Max-DP      RMS-DP      [F,P]     Damp
               ***  Starting incremental Fock matrix formation  ***
  0   -286.5725202274   0.000000000000 0.04894776  0.00096200  0.2500348 0.7000
  1   -286.6377021063  -0.065181878857 0.03321847  0.00069006  0.0987620 0.7000
                               ***Turning on DIIS***
  2   -286.6619753633  -0.024273257039 0.05281738  0.00118228  0.0402976 0.0000
  3   -286.7039774054  -0.042002042101 0.02214304  0.00050181  0.0472071 0.0000
  4   -286.7110525256  -0.007075120119 0.00560633  0.00015634  0.0160569 0.0000
                      *** Initiating the SOSCF procedure ***
                           *** Shutting down DIIS ***
                      *** Re-Reading the Fockian *** 
                      *** Removing any level shift *** 
ITER      Energy       Delta-E        Grad      Rot      Max-DP    RMS-DP
  5   -286.71173945  -0.0006869250  0.000420  0.000420  0.001886  0.000051
               *** Restarting incremental Fock matrix formation ***
  6   -286.71176627  -0.0000268170  0.000194  0.000619  0.001244  0.000030
  7   -286.71176764  -0.0000013744  0.000075  0.000203  0.000377  0.000010
  8   -286.71176770  -0.0000000582  0.000110  0.000159  0.000208  0.000006
  9   -286.71176788  -0.0000001800  0.000052  0.000078  0.000159  0.000003
 10   -286.71176788  -0.0000000035  0.000029  0.000045  0.000110  0.000002
                  ***Gradient check signals convergence***
              ***Rediagonalizing the Fockian in SOSCF/NRSCF***

               *****************************************************
               *                     SUCCESS                       *
               *           SCF CONVERGED AFTER  11 CYCLES          *
               *****************************************************

Setting up the final grid:

General Integration Accuracy     IntAcc      ...  5.010
Radial Grid Type                 RadialGrid  ... Gauss-Chebyshev
Angular Grid (max. acc.)         AngularGrid ... Lebedev-434
Angular grid pruning method      GridPruning ... 3 (G Style)
Weight generation scheme         WeightScheme... Becke
Basis function cutoff            BFCut       ...    1.0000e-11
Integration weight cutoff        WCut        ...    1.0000e-14
Grids for H and He will be reduced by one unit

# of grid points (after initial pruning)     ... 117760 (   0.0 sec)
# of grid points (after weights+screening)   ... 108270 (   0.1 sec)
nearest neighbour list constructed           ...    0.0 sec
Grid point re-assignment to atoms done       ...    0.0 sec
Grid point division into batches done        ...    0.8 sec
Reduced shell lists constructed in    1.0 sec

Total number of grid points                  ...   108270
Total number of batches                      ...     1700
Average number of points per batch           ...       63
Average number of grid points per atom       ...     7734
Average number of shells per batch           ...    71.40 (72.86%)
Average number of basis functions per batch  ...   176.26 (75.33%)
Average number of large shells per batch     ...    58.45 (81.87%)
Average number of large basis fcns per batch ...   144.36 (81.90%)
Maximum spatial batch extension              ...  13.18, 14.22, 11.42 au
Average spatial batch extension              ...   0.19,  0.21,  0.19 au

Final grid set up in    1.2 sec
Final integration                            ... done (   0.6 sec)
Change in XC energy                          ...     0.000336269
Integrated number of electrons               ...    46.000015067
Previous integrated no of electrons          ...    46.000399656
Total Energy       :         -286.71143164 Eh           -7801.81469 eV
  Last Energy change         ...   -2.7045e-08  Tolerance :   1.0000e-08
  Last MAX-Density change    ...    6.8525e-06  Tolerance :   1.0000e-07
             **** THE GBW FILE WAS UPDATED (1038_+.gbw) ****
             **** DENSITY FILE WAS UPDATED (1038_+.scfp.tmp) ****
             **** ENERGY FILE WAS UPDATED (1038_+.en.tmp) ****
Total SCF time: 0 days 0 hours 0 min 44 sec 
           ************************************************************
           *              Shut down parallel processing               *
           ************************************************************

-------------------------   --------------------
FINAL SINGLE POINT ENERGY      -286.711431641258
-------------------------   --------------------



           ************************************************************
           *        Program running with 8 parallel MPI-processes     *
           *              working on a common directory               *
           ************************************************************
------------------------------------------------------------------------------
                         ORCA SCF GRADIENT CALCULATION
------------------------------------------------------------------------------

Gradient of the Kohn-Sham DFT energy:
Kohn-Sham wavefunction type      ... RKS
Hartree-Fock exchange scaling    ...    0.250
Number of operators              ...    1
Number of atoms                  ...   14
Basis set dimensions             ...  234
Integral neglect threshold       ... 2.5e-11
Integral primitive cutoff        ... 2.5e-12

Nuclear repulsion gradient       ... done
One Electron Gradient            ... done
Pre-screening matrix             ... done
Starting the two electron gradient:
Two electron gradient done
Exchange-correlation gradient    ... done

------------------
CARTESIAN GRADIENT
------------------

   1   C   :   -0.000023798   -0.000173536    0.000092083
   2   C   :    0.000070891   -0.000042401    0.000223410
   3   O   :   -0.000083849    0.000041071   -0.000165582
   4   C   :    0.000263126    0.000027799   -0.000097077
   5   C   :    0.000046442   -0.000121927    0.000149680
   6   N   :   -0.000207618   -0.000078952    0.000086113
   7   H   :    0.000012051    0.000030702    0.000017958
   8   H   :    0.000033860    0.000056732   -0.000048022
   9   H   :   -0.000031238    0.000093960   -0.000051548
  10   H   :    0.000004887    0.000002117   -0.000003297
  11   H   :   -0.000057119    0.000163652    0.000069035
  12   H   :   -0.000022230    0.000039714   -0.000244743
  13   H   :    0.000034493   -0.000015340   -0.000096725
  14   H   :   -0.000039896   -0.000023590    0.000068714

Norm of the cartesian gradient     ...    0.000665325
RMS gradient                       ...    0.000102662
MAX gradient                       ...    0.000263126

-------
TIMINGS
-------

Total SCF gradient time            ...       23.142 sec

One electron gradient       ....       0.298 sec  (  1.3%)
Prescreening matrices       ....       1.570 sec  (  6.8%)
Two electron gradient       ....      17.064 sec  ( 73.7%)
XC gradient                 ....       2.803 sec  ( 12.1%)
           ************************************************************
           *              Shut down parallel processing               *
           ************************************************************
------------------------------------------------------------------------------
                         ORCA GEOMETRY RELAXATION STEP
------------------------------------------------------------------------------

Reading the OPT-File                    .... done
Getting information on internals        .... done
Copying old internal coords+grads       .... done
Making the new internal coordinates     .... (new redundants).... done
Validating the new internal coordinates .... (new redundants).... done
Calculating the B-matrix                .... done
Calculating the G,G- and P matrices     .... done
Transforming gradient to internals      .... done
Projecting the internal gradient        .... done
Number of atoms                         ....  14
Number of internal coordinates          ....  77
Current Energy                          ....  -286.711431641 Eh
Current gradient norm                   ....     0.000665325 Eh/bohr
Maximum allowed component of the step   ....  0.300
Current trust radius                    ....  0.300
Evaluating the initial hessian          ....  (Almloef) done
Projecting the Hessian                  .... done
Forming the augmented Hessian           .... done
Diagonalizing the augmented Hessian     .... done
Last element of RFO vector              ....  0.999985689
Lowest eigenvalues of augmented Hessian:
 -0.000001062  0.010639683  0.012931207  0.014750621  0.036672944
Length of the computed step             ....  0.005349958
The final length of the internal step   ....  0.005349958
Converting the step to cartesian space:
 Initial RMS(Int)=    0.0006096843
Transforming coordinates:
 Iter   0:  RMS(Cart)=    0.0006920195 RMS(Int)=    0.0006096793
 Iter   1:  RMS(Cart)=    0.0000003856 RMS(Int)=    0.0000002578
 Iter   2:  RMS(Cart)=    0.0000000004 RMS(Int)=    0.0000000004
done
Storing new coordinates                 .... done

                                .--------------------.
          ----------------------|Geometry convergence|---------------------
          Item                value                 Tolerance   Converged
          -----------------------------------------------------------------
          RMS gradient        0.00005515            0.00003000      NO
          MAX gradient        0.00023560            0.00010000      NO
          RMS step            0.00060968            0.00060000      NO
          MAX step            0.00259619            0.00100000      NO
          ....................................................
          Max(Bonds)      0.0003      Max(Angles)    0.02
          Max(Dihed)        0.15      Max(Improp)    0.00
          -----------------------------------------------------------------

The optimization has not yet converged - more geometry cycles are needed


    ---------------------------------------------------------------------------
                         Redundant Internal Coordinates
                            (Angstroem and degrees)

        Definition                    Value    dE/dq     Step     New-Value
    ----------------------------------------------------------------------------
     1. B(C   1,C   0)                1.4810  0.000006 -0.0000    1.4810   
     2. B(O   2,C   1)                1.2041 -0.000171  0.0001    1.2042   
     3. B(C   3,C   1)                1.5272  0.000072 -0.0001    1.5271   
     4. B(C   4,C   3)                1.4808 -0.000018  0.0000    1.4808   
     5. B(N   5,C   4)                1.4706  0.000049 -0.0001    1.4706   
     6. B(N   5,C   3)                1.4709 -0.000182  0.0002    1.4712   
     7. B(H   6,C   0)                1.0877  0.000014 -0.0000    1.0877   
     8. B(H   7,C   0)                1.0954 -0.000041  0.0001    1.0955   
     9. B(H   8,C   0)                1.0949  0.000104 -0.0002    1.0947   
    10. B(H   9,C   3)                1.0833  0.000000 -0.0000    1.0833   
    11. B(H  10,C   4)                1.0836  0.000176 -0.0003    1.0833   
    12. B(H  11,C   4)                1.0826  0.000236 -0.0003    1.0823   
    13. B(H  12,N   5)                1.0143  0.000085 -0.0001    1.0141   
    14. B(H  13,N   5)                1.0298  0.000060 -0.0001    1.0297   
    15. A(H   6,C   0,H   7)          109.79  0.000061   -0.02    109.77   
    16. A(C   1,C   0,H   6)          110.25 -0.000019    0.00    110.25   
    17. A(H   7,C   0,H   8)          106.67  0.000019   -0.00    106.67   
    18. A(H   6,C   0,H   8)          110.34  0.000010    0.00    110.34   
    19. A(C   1,C   0,H   7)          109.43 -0.000025    0.00    109.43   
    20. A(C   1,C   0,H   8)          110.30 -0.000044    0.01    110.31   
    21. A(O   2,C   1,C   3)          116.14 -0.000046    0.01    116.15   
    22. A(C   0,C   1,O   2)          126.25  0.000018   -0.00    126.25   
    23. A(C   0,C   1,C   3)          117.60  0.000028   -0.00    117.59   
    24. A(C   1,C   3,H   9)          120.48  0.000041   -0.00    120.47   
    25. A(C   4,C   3,N   5)           59.77  0.000061   -0.01     59.76   
    26. A(N   5,C   3,H   9)          115.84 -0.000010   -0.00    115.84   
    27. A(C   4,C   3,H   9)          119.09 -0.000014   -0.00    119.09   
    28. A(C   1,C   3,C   4)          116.23 -0.000031    0.00    116.24   
    29. A(C   1,C   3,N   5)          109.48 -0.000051    0.01    109.49   
    30. A(C   3,C   4,N   5)           59.79 -0.000081    0.01     59.80   
    31. A(H  10,C   4,H  11)          117.09 -0.000030    0.00    117.09   
    32. A(N   5,C   4,H  11)          114.83  0.000045   -0.02    114.81   
    33. A(C   3,C   4,H  11)          119.34 -0.000004    0.02    119.36   
    34. A(N   5,C   4,H  10)          113.62  0.000040   -0.02    113.60   
    35. A(C   3,C   4,H  10)          118.70  0.000028   -0.00    118.69   
    36. A(C   4,N   5,H  13)          115.62 -0.000001   -0.01    115.61   
    37. A(C   3,N   5,H  13)          110.09 -0.000013    0.01    110.11   
    38. A(C   4,N   5,H  12)          120.00 -0.000026    0.01    120.01   
    39. A(C   3,N   5,H  12)          120.26 -0.000028    0.00    120.27   
    40. A(H  12,N   5,H  13)          117.59  0.000033   -0.01    117.58   
    41. A(C   3,N   5,C   4)           60.45  0.000020   -0.00     60.45   
    42. D(O   2,C   1,C   0,H   7)   -116.33 -0.000056    0.15   -116.18   
    43. D(C   3,C   1,C   0,H   7)     64.98 -0.000033    0.05     65.03   
    44. D(O   2,C   1,C   0,H   8)    126.62 -0.000038    0.14    126.76   
    45. D(O   2,C   1,C   0,H   6)      4.52 -0.000009    0.13      4.65   
    46. D(C   3,C   1,C   0,H   8)    -52.07 -0.000015    0.04    -52.03   
    47. D(C   3,C   1,C   0,H   6)   -174.17  0.000015    0.03   -174.14   
    48. D(C   4,C   3,C   1,O   2)    -56.67 -0.000005   -0.07    -56.73   
    49. D(H   9,C   3,C   1,O   2)    146.56  0.000007   -0.06    146.50   
    50. D(H   9,C   3,C   1,C   0)    -34.62 -0.000013    0.03    -34.59   
    51. D(N   5,C   3,C   1,O   2)      8.43  0.000040   -0.07      8.35   
    52. D(N   5,C   3,C   1,C   0)   -172.75  0.000019    0.02   -172.73   
    53. D(C   4,C   3,C   1,C   0)    122.16 -0.000025    0.03    122.18   
    54. D(N   5,C   4,C   3,H   9)   -104.66 -0.000020    0.00   -104.66   
    55. D(N   5,C   4,C   3,C   1)     98.23 -0.000021    0.01     98.24   
    56. D(H  11,C   4,C   3,H   9)     -1.36  0.000002   -0.02     -1.38   
    57. D(H  10,C   4,C   3,C   1)     -3.88 -0.000022    0.03     -3.86   
    58. D(H  11,C   4,C   3,N   5)    103.30  0.000022   -0.03    103.28   
    59. D(H  11,C   4,C   3,C   1)   -158.47  0.000000   -0.02   -158.49   
    60. D(H  10,C   4,C   3,H   9)    153.23 -0.000021    0.02    153.25   
    61. D(H  10,C   4,C   3,N   5)   -102.11 -0.000001    0.02   -102.09   
    62. D(C   3,N   5,C   4,H  11)   -110.81  0.000047   -0.03   -110.85   
    63. D(C   3,N   5,C   4,H  10)    110.60 -0.000006    0.01    110.61   
    64. D(H  13,N   5,C   3,H   9)   -141.16  0.000015   -0.02   -141.18   
    65. D(H  13,N   5,C   3,C   4)    108.78  0.000009   -0.02    108.76   
    66. D(H  13,N   5,C   3,C   1)     -0.89  0.000009   -0.01     -0.90   
    67. D(H  12,N   5,C   3,H   9)      0.51  0.000019   -0.01      0.50   
    68. D(H  12,N   5,C   3,C   4)   -109.55  0.000012   -0.01   -109.56   
    69. D(H  12,N   5,C   3,C   1)    140.78  0.000013   -0.01    140.78   
    70. D(C   4,N   5,C   3,H   9)    110.06  0.000007   -0.00    110.06   
    71. D(H  12,N   5,C   4,C   3)    109.98 -0.000016    0.00    109.98   
    72. D(C   4,N   5,C   3,C   1)   -109.66  0.000001    0.00   -109.66   
    73. D(H  13,N   5,C   4,H  11)    149.62  0.000054   -0.05    149.57   
    74. D(H  13,N   5,C   4,H  10)     11.04  0.000001   -0.01     11.03   
    75. D(H  13,N   5,C   4,C   3)    -99.56  0.000007   -0.02    -99.58   
    76. D(H  12,N   5,C   4,H  11)     -0.84  0.000031   -0.03     -0.87   
    77. D(H  12,N   5,C   4,H  10)   -139.43 -0.000021    0.01   -139.42   
    ----------------------------------------------------------------------------

         *************************************************************
         *                GEOMETRY OPTIMIZATION CYCLE   2            *
         *************************************************************
---------------------------------
CARTESIAN COORDINATES (ANGSTROEM)
---------------------------------
  C     -2.056221   -0.622753    0.421296
  C     -0.620733   -0.264924    0.490331
  O      0.000058   -0.000941    1.487791
  C      0.154663   -0.194608   -0.823380
  C      0.806624    1.099028   -1.130280
  N      1.584987    0.000147   -0.539404
  H     -2.513223   -0.537554    1.404608
  H     -2.158664   -1.649325    0.052806
  H     -2.574394    0.021532   -0.296209
  H     -0.077449   -0.873175   -1.635297
  H      0.651798    1.932458   -0.455771
  H      1.060445    1.335254   -2.155544
  H      2.286049   -0.479822   -1.093150
  H      1.739099    0.060133    0.476905

----------------------------
CARTESIAN COORDINATES (A.U.)
----------------------------
  NO LB      ZA    FRAG    MASS        X           Y           Z
   0 C     6.0000    0    12.011         -3.885694108088634         -1.176833355299463          0.796134088908893
   1 C     6.0000    0    12.011         -1.173015035979080         -0.500633631248754          0.926591390915151
   2 O     8.0000    0    15.999          0.000108663256219         -0.001778073366193          2.811516644434039
   3 C     6.0000    0    12.011          0.292270012851357         -0.367756259105178         -1.555963039593053
   4 C     6.0000    0    12.011          1.524298421980117          2.076861733644475         -2.135919000191457
   5 N     7.0000    0    14.007          2.995191054959404          0.000278588795495         -1.019325480976560
   6 H     1.0000    0     1.008         -4.749303907173365         -1.015829841764141          2.654324417227689
   7 H     1.0000    0     1.008         -4.079284026352396         -3.116772388763936          0.099789639663268
   8 H     1.0000    0     1.008         -4.864899468068725          0.040689675290735         -0.559754307617781
   9 H     1.0000    0     1.008         -0.146358221166740         -1.650061984630027         -3.090264244565301
  10 H     1.0000    0     1.008          1.231720381987867          3.651815579005715         -0.861283255738317
  11 H     1.0000    0     1.008          2.003950784754710          2.523263434494027         -4.073388742229568
  12 H     1.0000    0     1.008          4.320005951265027         -0.906732206032275         -2.065753734179911
  13 H     1.0000    0     1.008          3.286420947581006          0.113634914304568          0.901219786953968

--------------------------------
INTERNAL COORDINATES (ANGSTROEM)
--------------------------------
 C      0   0   0   0.000000     0.000     0.000
 C      1   0   0   1.481024     0.000     0.000
 O      2   1   0   1.204157   126.247     0.000
 C      2   1   3   1.527095   117.592   181.208
 C      4   2   1   1.480789   116.236   122.181
 N      5   4   2   1.470551    59.798    98.238
 H      1   2   3   1.087664   110.254     4.648
 H      1   2   3   1.095504   109.434   243.820
 H      1   2   3   1.094724   110.312   126.763
 H      4   2   1   1.083300   120.472   325.411
 H      5   4   2   1.083299   118.694   356.144
 H      5   4   2   1.082310   119.358   201.513
 H      6   5   4   1.014146   120.011   109.976
 H      6   5   4   1.029676   115.612   260.421

---------------------------
INTERNAL COORDINATES (A.U.)
---------------------------
 C      0   0   0   0.000000     0.000     0.000
 C      1   0   0   2.798731     0.000     0.000
 O      2   1   0   2.275526   126.247     0.000
 C      2   1   3   2.885792   117.592   181.208
 C      4   2   1   2.798285   116.236   122.181
 N      5   4   2   2.778939    59.798    98.238
 H      1   2   3   2.055387   110.254     4.648
 H      1   2   3   2.070202   109.434   243.820
 H      1   2   3   2.068729   110.312   126.763
 H      4   2   1   2.047140   120.472   325.411
 H      5   4   2   2.047139   118.694   356.144
 H      5   4   2   2.045270   119.358   201.513
 H      6   5   4   1.916459   120.011   109.976
 H      6   5   4   1.945805   115.612   260.421



           ************************************************************
           *        Program running with 8 parallel MPI-processes     *
           *              working on a common directory               *
           ************************************************************
           ************************************************************
           *              Shut down parallel processing               *
           ************************************************************


           ************************************************************
           *        Program running with 8 parallel MPI-processes     *
           *              working on a common directory               *
           ************************************************************

Diagonalization of the overlap matrix:
Smallest eigenvalue                        ... 1.812e-04
Time for diagonalization                   ...    0.140 sec
Threshold for overlap eigenvalues          ... 1.000e-08
Number of eigenvalues below threshold      ... 0
Time for construction of square roots      ...    0.015 sec
Total time needed                          ...    0.155 sec

-------------------
DFT GRID GENERATION
-------------------

General Integration Accuracy     IntAcc      ...  4.340
Radial Grid Type                 RadialGrid  ... Gauss-Chebyshev
Angular Grid (max. acc.)         AngularGrid ... Lebedev-194
Angular grid pruning method      GridPruning ... 3 (G Style)
Weight generation scheme         WeightScheme... Becke
Basis function cutoff            BFCut       ...    1.0000e-11
Integration weight cutoff        WCut        ...    1.0000e-14
Grids for H and He will be reduced by one unit

# of grid points (after initial pruning)     ...  32028 (   0.0 sec)
# of grid points (after weights+screening)   ...  29732 (   0.2 sec)
nearest neighbour list constructed           ...    0.0 sec
Grid point re-assignment to atoms done       ...    0.0 sec
Grid point division into batches done        ...    0.1 sec
Reduced shell lists constructed in    0.2 sec

Total number of grid points                  ...    29732
Total number of batches                      ...      471
Average number of points per batch           ...       63
Average number of grid points per atom       ...     2124
Average number of shells per batch           ...    76.00 (77.55%)
Average number of basis functions per batch  ...   188.37 (80.50%)
Average number of large shells per batch     ...    64.07 (84.30%)
Average number of large basis fcns per batch ...   159.77 (84.82%)
Maximum spatial batch extension              ...  13.85, 15.72, 13.92 au
Average spatial batch extension              ...   0.24,  0.26,  0.24 au

Time for grid setup =    0.794 sec

--------------
SCF ITERATIONS
--------------
ITER       Energy         Delta-E        Max-DP      RMS-DP      [F,P]     Damp
               ***  Starting incremental Fock matrix formation  ***
                      *** Initiating the SOSCF procedure ***
                      *** Re-Reading the Fockian *** 
                      *** Removing any level shift *** 
ITER      Energy       Delta-E        Grad      Rot      Max-DP    RMS-DP
  0   -286.71176767 -286.7117676674  0.000133  0.000133  0.000306  0.000006
               *** Restarting incremental Fock matrix formation ***
  1   -286.71176876  -0.0000010939  0.000060  0.000148  0.000094  0.000003
  2   -286.71176888  -0.0000001204  0.000038  0.000096  0.000078  0.000002
  3   -286.71176887   0.0000000071  0.000052  0.000058  0.000047  0.000001
  4   -286.71176890  -0.0000000240  0.000006  0.000014  0.000016  0.000000
  5   -286.71176890   0.0000000007  0.000008  0.000008  0.000009  0.000000
                 **** Energy Check signals convergence ****
              ***Rediagonalizing the Fockian in SOSCF/NRSCF***

               *****************************************************
               *                     SUCCESS                       *
               *           SCF CONVERGED AFTER   6 CYCLES          *
               *****************************************************

Setting up the final grid:

General Integration Accuracy     IntAcc      ...  5.010
Radial Grid Type                 RadialGrid  ... Gauss-Chebyshev
Angular Grid (max. acc.)         AngularGrid ... Lebedev-434
Angular grid pruning method      GridPruning ... 3 (G Style)
Weight generation scheme         WeightScheme... Becke
Basis function cutoff            BFCut       ...    1.0000e-11
Integration weight cutoff        WCut        ...    1.0000e-14
Grids for H and He will be reduced by one unit

# of grid points (after initial pruning)     ... 117760 (   0.0 sec)
# of grid points (after weights+screening)   ... 108272 (   0.1 sec)
nearest neighbour list constructed           ...    0.0 sec
Grid point re-assignment to atoms done       ...    0.0 sec
Grid point division into batches done        ...    0.8 sec
Reduced shell lists constructed in    1.1 sec

Total number of grid points                  ...   108272
Total number of batches                      ...     1700
Average number of points per batch           ...       63
Average number of grid points per atom       ...     7734
Average number of shells per batch           ...    71.35 (72.81%)
Average number of basis functions per batch  ...   176.09 (75.25%)
Average number of large shells per batch     ...    58.41 (81.87%)
Average number of large basis fcns per batch ...   144.25 (81.92%)
Maximum spatial batch extension              ...  13.18, 14.22, 11.42 au
Average spatial batch extension              ...   0.19,  0.21,  0.19 au

Final grid set up in    1.2 sec
Final integration                            ... done (   0.6 sec)
Change in XC energy                          ...     0.000336578
Integrated number of electrons               ...    46.000014795
Previous integrated no of electrons          ...    46.000400622
Total Energy       :         -286.71143232 Eh           -7801.81471 eV
  Last Energy change         ...   -2.1666e-09  Tolerance :   1.0000e-08
  Last MAX-Density change    ...    8.6022e-07  Tolerance :   1.0000e-07
             **** THE GBW FILE WAS UPDATED (1038_+.gbw) ****
             **** DENSITY FILE WAS UPDATED (1038_+.scfp.tmp) ****
             **** ENERGY FILE WAS UPDATED (1038_+.en.tmp) ****
Total SCF time: 0 days 0 hours 0 min 25 sec 
           ************************************************************
           *              Shut down parallel processing               *
           ************************************************************

-------------------------   --------------------
FINAL SINGLE POINT ENERGY      -286.711432322508
-------------------------   --------------------



           ************************************************************
           *        Program running with 8 parallel MPI-processes     *
           *              working on a common directory               *
           ************************************************************
------------------------------------------------------------------------------
                         ORCA SCF GRADIENT CALCULATION
------------------------------------------------------------------------------

Gradient of the Kohn-Sham DFT energy:
Kohn-Sham wavefunction type      ... RKS
Hartree-Fock exchange scaling    ...    0.250
Number of operators              ...    1
Number of atoms                  ...   14
Basis set dimensions             ...  234
Integral neglect threshold       ... 2.5e-11
Integral primitive cutoff        ... 2.5e-12

Nuclear repulsion gradient       ... done
One Electron Gradient            ... done
Pre-screening matrix             ... done
Starting the two electron gradient:
Two electron gradient done
Exchange-correlation gradient    ... done

------------------
CARTESIAN GRADIENT
------------------

   1   C   :   -0.000020976   -0.000152885    0.000057963
   2   C   :   -0.000054935    0.000149240    0.000059602
   3   O   :    0.000003735   -0.000018763   -0.000033615
   4   C   :    0.000144616   -0.000086570   -0.000075345
   5   C   :    0.000023972    0.000028473    0.000065953
   6   N   :   -0.000047750   -0.000057519    0.000013290
   7   H   :    0.000011905    0.000019154   -0.000001566
   8   H   :   -0.000000990    0.000025950   -0.000049701
   9   H   :    0.000019835    0.000040069    0.000008567
  10   H   :   -0.000006572    0.000005864   -0.000001396
  11   H   :   -0.000004315    0.000019279   -0.000024808
  12   H   :   -0.000023856   -0.000015965   -0.000011030
  13   H   :   -0.000014512    0.000025465   -0.000034313
  14   H   :   -0.000030158    0.000018208    0.000026398

Norm of the cartesian gradient     ...    0.000338867
RMS gradient                       ...    0.000052288
MAX gradient                       ...    0.000152885

-------
TIMINGS
-------

Total SCF gradient time            ...       20.478 sec

One electron gradient       ....       0.081 sec  (  0.4%)
Prescreening matrices       ....       0.361 sec  (  1.8%)
Two electron gradient       ....      16.796 sec  ( 82.0%)
XC gradient                 ....       2.605 sec  ( 12.7%)
           ************************************************************
           *              Shut down parallel processing               *
           ************************************************************
------------------------------------------------------------------------------
                         ORCA GEOMETRY RELAXATION STEP
------------------------------------------------------------------------------

Reading the OPT-File                    .... done
Getting information on internals        .... done
Copying old internal coords+grads       .... done
Making the new internal coordinates     .... (new redundants).... done
Validating the new internal coordinates .... (new redundants).... done
Calculating the B-matrix                .... done
Calculating the G,G- and P matrices     .... done
Transforming gradient to internals      .... done
Projecting the internal gradient        .... done
Number of atoms                         ....  14
Number of internal coordinates          ....  77
Current Energy                          ....  -286.711432323 Eh
Current gradient norm                   ....     0.000338867 Eh/bohr
Maximum allowed component of the step   ....  0.300
Current trust radius                    ....  0.300
Updating the Hessian (BFGS)             .... done
Forming the augmented Hessian           .... done
Diagonalizing the augmented Hessian     .... done
Last element of RFO vector              ....  0.999965117
Lowest eigenvalues of augmented Hessian:
 -0.000000832  0.009081672  0.010722913  0.018803514  0.036876103
Length of the computed step             ....  0.008352873
The final length of the internal step   ....  0.008352873
Converting the step to cartesian space:
 Initial RMS(Int)=    0.0009518982
Transforming coordinates:
 Iter   0:  RMS(Cart)=    0.0017453267 RMS(Int)=    0.0009519279
 Iter   1:  RMS(Cart)=    0.0000024482 RMS(Int)=    0.0000017276
 Iter   2:  RMS(Cart)=    0.0000000071 RMS(Int)=    0.0000000042
done
Storing new coordinates                 .... done

                                .--------------------.
          ----------------------|Geometry convergence|---------------------
          Item                value                 Tolerance   Converged
          -----------------------------------------------------------------
          Energy change      -0.00000068            0.00000100      YES
          RMS gradient        0.00002037            0.00003000      YES
          MAX gradient        0.00006732            0.00010000      YES
          RMS step            0.00095190            0.00060000      NO
          MAX step            0.00418833            0.00100000      NO
          ....................................................
          Max(Bonds)      0.0003      Max(Angles)    0.03
          Max(Dihed)        0.24      Max(Improp)    0.00
          -----------------------------------------------------------------

       The energies and gradients are converged
       and the convergence on bond distances, angles, dihedrals and impropers
       is acceptable.
       Convergence will therefore be signaled now


                    ***********************HURRAY********************
                    ***        THE OPTIMIZATION HAS CONVERGED     ***
                    *************************************************


    ---------------------------------------------------------------------------
                         Redundant Internal Coordinates

                          --- Optimized Parameters ---  
                            (Angstroem and degrees)

        Definition                    OldVal   dE/dq     Step     FinalVal
    ----------------------------------------------------------------------------
     1. B(C   1,C   0)                1.4810  0.000006 -0.0000    1.4810   
     2. B(O   2,C   1)                1.2042 -0.000030  0.0001    1.2042   
     3. B(C   3,C   1)                1.5271  0.000056 -0.0002    1.5269   
     4. B(C   4,C   3)                1.4808 -0.000001  0.0000    1.4808   
     5. B(N   5,C   4)                1.4706 -0.000004 -0.0001    1.4705   
     6. B(N   5,C   3)                1.4712 -0.000067  0.0003    1.4715   
     7. B(H   6,C   0)                1.0877 -0.000004 -0.0000    1.0877   
     8. B(H   7,C   0)                1.0955 -0.000009  0.0001    1.0956   
     9. B(H   8,C   0)                1.0947  0.000009 -0.0001    1.0946   
    10. B(H   9,C   3)                1.0833 -0.000001  0.0000    1.0833   
    11. B(H  10,C   4)                1.0833 -0.000001 -0.0002    1.0831   
    12. B(H  11,C   4)                1.0823  0.000002 -0.0002    1.0821   
    13. B(H  12,N   5)                1.0141 -0.000003 -0.0001    1.0141   
    14. B(H  13,N   5)                1.0297  0.000022 -0.0001    1.0296   
    15. A(H   6,C   0,H   7)          109.77  0.000034   -0.03    109.74   
    16. A(C   1,C   0,H   6)          110.25 -0.000010    0.00    110.26   
    17. A(H   7,C   0,H   8)          106.67  0.000008    0.00    106.67   
    18. A(H   6,C   0,H   8)          110.34  0.000010    0.01    110.34   
    19. A(C   1,C   0,H   7)          109.43  0.000022   -0.01    109.43   
    20. A(C   1,C   0,H   8)          110.31 -0.000063    0.03    110.34   
    21. A(O   2,C   1,C   3)          116.15 -0.000030    0.01    116.16   
    22. A(C   0,C   1,O   2)          126.25  0.000013   -0.00    126.24   
    23. A(C   0,C   1,C   3)          117.59  0.000017   -0.01    117.59   
    24. A(C   1,C   3,H   9)          120.47  0.000015   -0.01    120.46   
    25. A(C   4,C   3,N   5)           59.76  0.000012   -0.01     59.75   
    26. A(N   5,C   3,H   9)          115.84  0.000003   -0.01    115.84   
    27. A(C   4,C   3,H   9)          119.09  0.000001   -0.00    119.09   
    28. A(C   1,C   3,C   4)          116.24 -0.000018    0.01    116.25   
    29. A(C   1,C   3,N   5)          109.49 -0.000018    0.02    109.51   
    30. A(C   3,C   4,N   5)           59.80 -0.000027    0.01     59.81   
    31. A(H  10,C   4,H  11)          117.09 -0.000011    0.00    117.09   
    32. A(N   5,C   4,H  11)          114.81  0.000009   -0.02    114.79   
    33. A(C   3,C   4,H  11)          119.36 -0.000009    0.02    119.38   
    34. A(N   5,C   4,H  10)          113.60  0.000019   -0.02    113.58   
    35. A(C   3,C   4,H  10)          118.69  0.000019   -0.01    118.69   
    36. A(C   4,N   5,H  13)          115.61 -0.000014   -0.00    115.61   
    37. A(C   3,N   5,H  13)          110.11 -0.000009    0.01    110.12   
    38. A(C   4,N   5,H  12)          120.01 -0.000016    0.02    120.03   
    39. A(C   3,N   5,H  12)          120.27 -0.000017    0.00    120.27   
    40. A(H  12,N   5,H  13)          117.58  0.000029   -0.02    117.57   
    41. A(C   3,N   5,C   4)           60.45  0.000014   -0.00     60.44   
    42. D(O   2,C   1,C   0,H   7)   -116.18 -0.000028    0.14   -116.04   
    43. D(C   3,C   1,C   0,H   7)     65.03 -0.000059    0.24     65.27   
    44. D(O   2,C   1,C   0,H   8)    126.76 -0.000014    0.13    126.89   
    45. D(O   2,C   1,C   0,H   6)      4.65  0.000022    0.10      4.75   
    46. D(C   3,C   1,C   0,H   8)    -52.03 -0.000045    0.23    -51.80   
    47. D(C   3,C   1,C   0,H   6)   -174.14 -0.000009    0.20   -173.94   
    48. D(C   4,C   3,C   1,O   2)    -56.73 -0.000021    0.06    -56.67   
    49. D(H   9,C   3,C   1,O   2)    146.50 -0.000016    0.06    146.55   
    50. D(H   9,C   3,C   1,C   0)    -34.59  0.000012   -0.03    -34.62   
    51. D(N   5,C   3,C   1,O   2)      8.35 -0.000017    0.06      8.41   
    52. D(N   5,C   3,C   1,C   0)   -172.73  0.000011   -0.03   -172.76   
    53. D(C   4,C   3,C   1,C   0)    122.18  0.000007   -0.03    122.15   
    54. D(N   5,C   4,C   3,H   9)   -104.66 -0.000009    0.01   -104.64   
    55. D(N   5,C   4,C   3,C   1)     98.24 -0.000008    0.01     98.25   
    56. D(H  11,C   4,C   3,H   9)     -1.38 -0.000005   -0.02     -1.40   
    57. D(H  10,C   4,C   3,C   1)     -3.86 -0.000010    0.03     -3.83   
    58. D(H  11,C   4,C   3,N   5)    103.28  0.000004   -0.03    103.25   
    59. D(H  11,C   4,C   3,C   1)   -158.49 -0.000004   -0.02   -158.51   
    60. D(H  10,C   4,C   3,H   9)    153.25 -0.000011    0.03    153.28   
    61. D(H  10,C   4,C   3,N   5)   -102.09 -0.000002    0.02   -102.08   
    62. D(C   3,N   5,C   4,H  11)   -110.85  0.000023   -0.04   -110.89   
    63. D(C   3,N   5,C   4,H  10)    110.61  0.000007    0.00    110.61   
    64. D(H  13,N   5,C   3,H   9)   -141.18 -0.000007   -0.01   -141.19   
    65. D(H  13,N   5,C   3,C   4)    108.76 -0.000010   -0.01    108.75   
    66. D(H  13,N   5,C   3,C   1)     -0.90 -0.000000   -0.01     -0.91   
    67. D(H  12,N   5,C   3,H   9)      0.50  0.000010   -0.02      0.48   
    68. D(H  12,N   5,C   3,C   4)   -109.56  0.000007   -0.02   -109.58   
    69. D(H  12,N   5,C   3,C   1)    140.78  0.000017   -0.02    140.76   
    70. D(C   4,N   5,C   3,H   9)    110.06  0.000003   -0.00    110.06   
    71. D(H  12,N   5,C   4,C   3)    109.98 -0.000008   -0.00    109.97   
    72. D(C   4,N   5,C   3,C   1)   -109.66  0.000010   -0.00   -109.66   
    73. D(H  13,N   5,C   4,H  11)    149.57  0.000020   -0.06    149.52   
    74. D(H  13,N   5,C   4,H  10)     11.03  0.000005   -0.01     11.02   
    75. D(H  13,N   5,C   4,C   3)    -99.58 -0.000002   -0.01    -99.59   
    76. D(H  12,N   5,C   4,H  11)     -0.87  0.000015   -0.05     -0.92   
    77. D(H  12,N   5,C   4,H  10)   -139.42 -0.000001    0.00   -139.42   
    ----------------------------------------------------------------------------
                 *******************************************************
                 *** FINAL ENERGY EVALUATION AT THE STATIONARY POINT ***
                 ***               (AFTER    2 CYCLES)               ***
                 *******************************************************


           ************************************************************
           *        Program running with 8 parallel MPI-processes     *
           *              working on a common directory               *
           ************************************************************
           ************************************************************
           *              Shut down parallel processing               *
           ************************************************************


           ************************************************************
           *        Program running with 8 parallel MPI-processes     *
           *              working on a common directory               *
           ************************************************************
------------
SCF SETTINGS
------------
Hamiltonian:
 Density Functional     Method          .... DFT(GTOs)
 Exchange Functional    Exchange        .... PBE
   PBE kappa parameter  XKappa          ....  0.804000
 Correlation Functional Correlation     .... PBE
 LDA part of GGA corr.  LDAOpt          .... PW91-LDA
 Gradients option       PostSCFGGA      .... off
 Hybrid DFT is turned on
   Fraction HF Exchange ScalHFX         ....  0.250000
   Scaling of DF-GGA-X  ScalDFX         ....  0.750000
   Scaling of DF-GGA-C  ScalDFC         ....  1.000000
   Scaling of DF-LDA-C  ScalLDAC        ....  1.000000
   Perturbative correction              ....  0.000000
   NL short-range parameter             ....  6.900000


General Settings:
 Integral files         IntName         .... 1038_+
 Hartree-Fock type      HFTyp           .... RHF
 Total Charge           Charge          ....    1
 Multiplicity           Mult            ....    1
 Number of Electrons    NEL             ....   46
 Basis Dimension        Dim             ....  234
 Nuclear Repulsion      ENuc            ....    245.2352485795 Eh

Convergence Acceleration:
 DIIS                   CNVDIIS         .... on
   Start iteration      DIISMaxIt       ....    12
   Startup error        DIISStart       ....  0.200000
   # of expansion vecs  DIISMaxEq       ....     5
   Bias factor          DIISBfac        ....   1.050
   Max. coefficient     DIISMaxC        ....  10.000
 Newton-Raphson         CNVNR           .... off
 SOSCF                  CNVSOSCF        .... on
   Start iteration      SOSCFMaxIt      ....   150
   Startup grad/error   SOSCFStart      ....  0.003300
 Level Shifting         CNVShift        .... on
   Level shift para.    LevelShift      ....    0.2500
   Turn off err/grad.   ShiftErr        ....    0.0010
 Zerner damping         CNVZerner       .... off
 Static damping         CNVDamp         .... on
   Fraction old density DampFac         ....    0.7000
   Max. Damping (<1)    DampMax         ....    0.9800
   Min. Damping (>=0)   DampMin         ....    0.0000
   Turn off err/grad.   DampErr         ....    0.1000
 Fernandez-Rico         CNVRico         .... off

SCF Procedure:
 Maximum # iterations   MaxIter         ....   125
 SCF integral mode      SCFMode         .... Direct
   Integral package                     .... LIBINT
 Reset frequeny         DirectResetFreq ....    20
 Integral Threshold     Thresh          ....  2.500e-11 Eh
 Primitive CutOff       TCut            ....  2.500e-12 Eh

Convergence Tolerance:
 Convergence Check Mode ConvCheckMode   .... Total+1el-Energy
 Energy Change          TolE            ....  1.000e-08 Eh
 1-El. energy change                    ....  1.000e-05 Eh
 Orbital Gradient       TolG            ....  1.000e-05
 Orbital Rotation angle TolX            ....  1.000e-05
 DIIS Error             TolErr          ....  5.000e-07


Diagonalization of the overlap matrix:
Smallest eigenvalue                        ... 1.811e-04
Time for diagonalization                   ...    0.016 sec
Threshold for overlap eigenvalues          ... 1.000e-08
Number of eigenvalues below threshold      ... 0
Time for construction of square roots      ...    0.010 sec
Total time needed                          ...    0.026 sec

-------------------
DFT GRID GENERATION
-------------------

General Integration Accuracy     IntAcc      ...  4.340
Radial Grid Type                 RadialGrid  ... Gauss-Chebyshev
Angular Grid (max. acc.)         AngularGrid ... Lebedev-194
Angular grid pruning method      GridPruning ... 3 (G Style)
Weight generation scheme         WeightScheme... Becke
Basis function cutoff            BFCut       ...    1.0000e-11
Integration weight cutoff        WCut        ...    1.0000e-14
Grids for H and He will be reduced by one unit

# of grid points (after initial pruning)     ...  32028 (   0.0 sec)
# of grid points (after weights+screening)   ...  29732 (   0.0 sec)
nearest neighbour list constructed           ...    0.0 sec
Grid point re-assignment to atoms done       ...    0.0 sec
Grid point division into batches done        ...    0.1 sec
Reduced shell lists constructed in    0.1 sec

Total number of grid points                  ...    29732
Total number of batches                      ...      471
Average number of points per batch           ...       63
Average number of grid points per atom       ...     2124
Average number of shells per batch           ...    76.02 (77.57%)
Average number of basis functions per batch  ...   188.42 (80.52%)
Average number of large shells per batch     ...    64.03 (84.24%)
Average number of large basis fcns per batch ...   159.70 (84.76%)
Maximum spatial batch extension              ...  13.85, 15.72, 13.92 au
Average spatial batch extension              ...   0.24,  0.26,  0.24 au

Time for grid setup =    0.173 sec

--------------
SCF ITERATIONS
--------------
ITER       Energy         Delta-E        Max-DP      RMS-DP      [F,P]     Damp
               ***  Starting incremental Fock matrix formation  ***
                      *** Initiating the SOSCF procedure ***
                      *** Re-Reading the Fockian *** 
                      *** Removing any level shift *** 
ITER      Energy       Delta-E        Grad      Rot      Max-DP    RMS-DP
  0   -286.71176742 -286.7117674162  0.000267  0.000267  0.000406  0.000008
               *** Restarting incremental Fock matrix formation ***
  1   -286.71176959  -0.0000021752  0.000079  0.000089  0.000150  0.000003
  2   -286.71176980  -0.0000002070  0.000040  0.000113  0.000088  0.000002
  3   -286.71176977   0.0000000276  0.000072  0.000072  0.000057  0.000001
  4   -286.71176981  -0.0000000437  0.000004  0.000009  0.000011  0.000000
  5   -286.71176981   0.0000000001  0.000005  0.000005  0.000006  0.000000
                 **** Energy Check signals convergence ****
              ***Rediagonalizing the Fockian in SOSCF/NRSCF***

               *****************************************************
               *                     SUCCESS                       *
               *           SCF CONVERGED AFTER   6 CYCLES          *
               *****************************************************

Setting up the final grid:

General Integration Accuracy     IntAcc      ...  5.010
Radial Grid Type                 RadialGrid  ... Gauss-Chebyshev
Angular Grid (max. acc.)         AngularGrid ... Lebedev-434
Angular grid pruning method      GridPruning ... 3 (G Style)
Weight generation scheme         WeightScheme... Becke
Basis function cutoff            BFCut       ...    1.0000e-11
Integration weight cutoff        WCut        ...    1.0000e-14
Grids for H and He will be reduced by one unit

# of grid points (after initial pruning)     ... 117760 (   0.0 sec)
# of grid points (after weights+screening)   ... 108277 (   0.1 sec)
nearest neighbour list constructed           ...    0.0 sec
Grid point re-assignment to atoms done       ...    0.0 sec
Grid point division into batches done        ...    0.8 sec
Reduced shell lists constructed in    1.1 sec

Total number of grid points                  ...   108277
Total number of batches                      ...     1700
Average number of points per batch           ...       63
Average number of grid points per atom       ...     7734
Average number of shells per batch           ...    71.41 (72.86%)
Average number of basis functions per batch  ...   176.20 (75.30%)
Average number of large shells per batch     ...    58.47 (81.89%)
Average number of large basis fcns per batch ...   144.42 (81.96%)
Maximum spatial batch extension              ...  13.18, 14.22, 11.42 au
Average spatial batch extension              ...   0.19,  0.21,  0.19 au

Final grid set up in    1.2 sec
Final integration                            ... done (   0.6 sec)
Change in XC energy                          ...     0.000337019
Integrated number of electrons               ...    46.000014251
Previous integrated no of electrons          ...    46.000409358
Total Energy       :         -286.71143280 Eh           -7801.81472 eV
  Last Energy change         ...   -5.4973e-10  Tolerance :   1.0000e-08
  Last MAX-Density change    ...    6.1307e-07  Tolerance :   1.0000e-07
             **** THE GBW FILE WAS UPDATED (1038_+.gbw) ****
             **** DENSITY FILE WAS UPDATED (1038_+.scfp.tmp) ****
             **** ENERGY FILE WAS UPDATED (1038_+.en.tmp) ****
Total SCF time: 0 days 0 hours 0 min 24 sec 
           ************************************************************
           *              Shut down parallel processing               *
           ************************************************************

-------------------------   --------------------
FINAL SINGLE POINT ENERGY      -286.711432795838
-------------------------   --------------------

                                *** OPTIMIZATION RUN DONE ***

                            ***************************************
                            *     ORCA property calculations      *
                            ***************************************

                                    ---------------------
                                    Active property flags
                                    ---------------------




           ************************************************************
           *        Program running with 8 parallel MPI-processes     *
           *              working on a common directory               *
           ************************************************************

-------------------------------------------------------------------------------
                               ORCA SCF HESSIAN
-------------------------------------------------------------------------------

Hessian of the Kohn-Sham DFT energy:
Kohn-Sham wavefunction type                      ... RKS
Hartree-Fock exchange scaling                    ...    0.250
Number of operators                              ...    1
Number of atoms                                  ...   14
Basis set dimensions                             ...  234
Integral neglect threshold                       ... 2.5e-11
Integral primitive cutoff                        ... 2.5e-12

Setting up DFT Hessian calculations              ... 
Electron density on the grid                     ... found on disk
Electron density on the final grid               ... found on disk
Building xc-kernel on the grid                   ... done   (      0.0 sec)
Building xc-kernel on the final grid             ... done   (      0.0 sec)
                                                     done   (      0.2 sec)

Nuclear repulsion Hessian                        ... done   (      0.0 sec)

----------------------------------------------
Forming right-hand sides of CP-SCF equations     ...
----------------------------------------------
One electron integral derivatives                ... done   (      0.3 sec)
Transforming the overlap derivative matrices     ... done   (      0.1 sec)
Making the Q(x) pseudodensities                  ... done   (      0.1 sec)
Adding the E*S(x)*S(y) terms to the Hessian      ... done   (      0.0 sec)
Calculating energy weighted overlap derivatives  ... done   (      0.0 sec)
Two electron integral derivatives                ... done   (     25.6 sec)
Exchange-correlation integral derivatives        ... done   (     33.7 sec)
tr(F(y)Q(x)) contribution to the Hessian         ... done   (      0.0 sec)
Response fock operator R(S(x))                   ... done   (     81.7 sec)
XC Response fock operator R(S(x))                ... done   (     13.8 sec)
tr(F(y)S(x)) contribution to the Hessian         ... done   (      0.0 sec)
Transforming and finalizing RHSs                 ... done   (      0.1 sec)

----------------------------------------------
Solving the CP-SCF equations                     ...
----------------------------------------------
     CP-SCF ITERATION   0: 
     CP-SCF ITERATION   1:      0.003073015
     CP-SCF ITERATION   2:      0.000262742
     CP-SCF ITERATION   3:      0.000033697
     CP-SCF ITERATION   4:      0.000001802
     CP-SCF ITERATION   5:      0.000000151
     CP-SCF ITERATION   6:      0.000000012
     CP-SCF ITERATION   7:      0.000000006

                                                 ... done   (    711.3 sec)
Forming perturbed density Hessian contributions  ... done   (      0.0 sec)
Making the perturbed densities                   ... done   (      0.0 sec)
2nd integral derivative contribs                 ... done   (    156.2 sec)
Exchange-correlation Hessian                     ... done   (     18.7 sec)
Dipol derivatives                                ... done   (      2.3 sec)

Total SCF Hessian time: 0 days 0 hours 17 min 24 sec 

Writing the Hessian file to the disk             ... done

           ************************************************************
           *              Shut down parallel processing               *
           ************************************************************

-----------------------
VIBRATIONAL FREQUENCIES
-----------------------

   0:         0.00 cm**-1
   1:         0.00 cm**-1
   2:         0.00 cm**-1
   3:         0.00 cm**-1
   4:         0.00 cm**-1
   5:         0.00 cm**-1
   6:       106.43 cm**-1
   7:       120.43 cm**-1
   8:       252.70 cm**-1
   9:       266.39 cm**-1
  10:       384.67 cm**-1
  11:       592.24 cm**-1
  12:       613.03 cm**-1
  13:       744.56 cm**-1
  14:       867.01 cm**-1
  15:       891.42 cm**-1
  16:       915.92 cm**-1
  17:       926.09 cm**-1
  18:       976.63 cm**-1
  19:      1046.32 cm**-1
  20:      1077.50 cm**-1
  21:      1110.44 cm**-1
  22:      1159.20 cm**-1
  23:      1175.94 cm**-1
  24:      1213.06 cm**-1
  25:      1255.10 cm**-1
  26:      1277.65 cm**-1
  27:      1377.27 cm**-1
  28:      1405.50 cm**-1
  29:      1443.74 cm**-1
  30:      1453.43 cm**-1
  31:      1483.07 cm**-1
  32:      1568.84 cm**-1
  33:      1829.40 cm**-1
  34:      3049.14 cm**-1
  35:      3112.08 cm**-1
  36:      3170.75 cm**-1
  37:      3187.54 cm**-1
  38:      3217.84 cm**-1
  39:      3278.09 cm**-1
  40:      3332.66 cm**-1
  41:      3584.06 cm**-1


------------
NORMAL MODES
------------

These modes are the cartesian displacements weighted by the diagonal matrix
M(i,i)=1/sqrt(m[i]) where m[i] is the mass of the displaced atom
Thus, these vectors are normalized but *not* orthogonal

                  0          1          2          3          4          5    
      0       0.000000   0.000000   0.000000   0.000000   0.000000   0.000000
      1       0.000000   0.000000   0.000000   0.000000   0.000000   0.000000
      2       0.000000   0.000000   0.000000   0.000000   0.000000   0.000000
      3       0.000000   0.000000   0.000000   0.000000   0.000000   0.000000
      4       0.000000   0.000000   0.000000   0.000000   0.000000   0.000000
      5       0.000000   0.000000   0.000000   0.000000   0.000000   0.000000
      6       0.000000   0.000000   0.000000   0.000000   0.000000   0.000000
      7       0.000000   0.000000   0.000000   0.000000   0.000000   0.000000
      8       0.000000   0.000000   0.000000   0.000000   0.000000   0.000000
      9       0.000000   0.000000   0.000000   0.000000   0.000000   0.000000
     10       0.000000   0.000000   0.000000   0.000000   0.000000   0.000000
     11       0.000000   0.000000   0.000000   0.000000   0.000000   0.000000
     12       0.000000   0.000000   0.000000   0.000000   0.000000   0.000000
     13       0.000000   0.000000   0.000000   0.000000   0.000000   0.000000
     14       0.000000   0.000000   0.000000   0.000000   0.000000   0.000000
     15       0.000000   0.000000   0.000000   0.000000   0.000000   0.000000
     16       0.000000   0.000000   0.000000   0.000000   0.000000   0.000000
     17       0.000000   0.000000   0.000000   0.000000   0.000000   0.000000
     18       0.000000   0.000000   0.000000   0.000000   0.000000   0.000000
     19       0.000000   0.000000   0.000000   0.000000   0.000000   0.000000
     20       0.000000   0.000000   0.000000   0.000000   0.000000   0.000000
     21       0.000000   0.000000   0.000000   0.000000   0.000000   0.000000
     22       0.000000   0.000000   0.000000   0.000000   0.000000   0.000000
     23       0.000000   0.000000   0.000000   0.000000   0.000000   0.000000
     24       0.000000   0.000000   0.000000   0.000000   0.000000   0.000000
     25       0.000000   0.000000   0.000000   0.000000   0.000000   0.000000
     26       0.000000   0.000000   0.000000   0.000000   0.000000   0.000000
     27       0.000000   0.000000   0.000000   0.000000   0.000000   0.000000
     28       0.000000   0.000000   0.000000   0.000000   0.000000   0.000000
     29       0.000000   0.000000   0.000000   0.000000   0.000000   0.000000
     30       0.000000   0.000000   0.000000   0.000000   0.000000   0.000000
     31       0.000000   0.000000   0.000000   0.000000   0.000000   0.000000
     32       0.000000   0.000000   0.000000   0.000000   0.000000   0.000000
     33       0.000000   0.000000   0.000000   0.000000   0.000000   0.000000
     34       0.000000   0.000000   0.000000   0.000000   0.000000   0.000000
     35       0.000000   0.000000   0.000000   0.000000   0.000000   0.000000
     36       0.000000   0.000000   0.000000   0.000000   0.000000   0.000000
     37       0.000000   0.000000   0.000000   0.000000   0.000000   0.000000
     38       0.000000   0.000000   0.000000   0.000000   0.000000   0.000000
     39       0.000000   0.000000   0.000000   0.000000   0.000000   0.000000
     40       0.000000   0.000000   0.000000   0.000000   0.000000   0.000000
     41       0.000000   0.000000   0.000000   0.000000   0.000000   0.000000
                  6          7          8          9         10         11    
      0      -0.017383  -0.008568   0.018895   0.042430  -0.125935  -0.026464
      1       0.143355   0.065428   0.075473  -0.010786  -0.002866  -0.045706
      2      -0.034597  -0.017765  -0.053915  -0.162851   0.151998   0.002543
      3       0.028462   0.009873   0.052085   0.023448  -0.059846   0.045638
      4      -0.049046  -0.010343  -0.078841   0.028821  -0.071385  -0.272116
      5       0.016011   0.002253  -0.024496   0.138485  -0.048604   0.069903
      6       0.025089   0.019719   0.024650  -0.076395  -0.190300   0.012380
      7      -0.118341  -0.081887   0.145938   0.007954  -0.021237   0.088811
      8       0.036589   0.015020  -0.066558   0.196807   0.007742  -0.000886
      9       0.058881   0.012916   0.045710  -0.012185   0.123324  -0.041135
     10      -0.096425  -0.015702  -0.172061   0.030481  -0.018355   0.058933
     11       0.031514   0.006588  -0.008361   0.127155   0.000296  -0.002126
     12      -0.107751  -0.038214  -0.163900  -0.035008   0.068717   0.074227
     13      -0.046831   0.004978  -0.016287  -0.008428   0.022757   0.050040
     14      -0.106178  -0.013204   0.226042  -0.042098  -0.012856  -0.031511
     15       0.019706   0.003226   0.031684   0.056544   0.186415  -0.043658
     16       0.125546   0.041155  -0.033856  -0.033121   0.058040   0.019061
     17       0.053889   0.004352  -0.054115  -0.179829  -0.117130  -0.004430
     18       0.032872  -0.134482  -0.011396  -0.213455   0.179566  -0.158401
     19      -0.091995   0.570293   0.166520  -0.100809   0.138648   0.283032
[...]
     28      -0.108873   0.062884   0.014318   0.282697   0.571439   0.086560
     29       0.186187  -0.144705  -0.072778  -0.455189  -0.279791  -0.130854
     30      -0.079469  -0.126319  -0.070069   0.082468  -0.457373   0.674726
     31      -0.151759  -0.003426   0.099760  -0.009298  -0.135356   0.094916
     32       0.114679  -0.058656  -0.105726  -0.007594  -0.013696   0.053364
     33       0.006172   0.049603  -0.114028  -0.188795   0.312714   0.610091
     34       0.146490  -0.047313  -0.182201  -0.179947   0.102332   0.071124
     35       0.035382   0.017205  -0.019531  -0.026738   0.063862   0.171391
     36       0.148732  -0.366590  -0.352565  -0.190639  -0.060882  -0.013748
     37       0.047492  -0.426930  -0.467482  -0.012689  -0.119757  -0.085831
     38       0.126868  -0.053751  -0.028159  -0.083985   0.041925   0.037566
     39      -0.187884   0.058607  -0.321951   0.414193   0.070226  -0.002566
     40       0.054698  -0.196241  -0.547194   0.400707   0.126922  -0.011270
     41       0.016226   0.033599   0.082755  -0.088782  -0.027599   0.001711
                 24         25         26         27         28         29    
      0      -0.081969  -0.014384   0.007678   0.098330   0.137781   0.035449
      1      -0.001675   0.005668  -0.003172   0.022575   0.050770   0.002434
      2       0.094759   0.012278  -0.008517   0.024244  -0.016649  -0.037002
      3       0.217842   0.018255  -0.006976   0.016824  -0.108644   0.033081
      4       0.024715  -0.014045   0.002508   0.015359  -0.022163   0.006850
      5      -0.143514  -0.014504   0.004819  -0.027194   0.090251  -0.010685
      6      -0.028070  -0.004677   0.004377   0.002905   0.002538  -0.017955
      7      -0.002608   0.005471   0.001717   0.000041  -0.001965  -0.005554
      8       0.031913   0.001401   0.003508   0.011437  -0.030986  -0.016501
      9       0.010895   0.082754  -0.055320  -0.099659   0.131962  -0.021907
     10      -0.008082   0.100330  -0.123837  -0.038640   0.042521  -0.004219
     11      -0.038728   0.062973  -0.033960   0.077223  -0.096025   0.022600
     12      -0.059004  -0.009133   0.051585   0.003908  -0.001523   0.000076
     13      -0.028133  -0.151247   0.080184   0.030763  -0.031050   0.001095
     14       0.027722  -0.073063  -0.103449  -0.032132   0.034343  -0.005212
     15      -0.014946  -0.069951   0.032905   0.025262  -0.026745   0.002642
     16       0.030097   0.050310   0.017830  -0.023316   0.028560  -0.004681
     17       0.027049   0.011419   0.136798  -0.010085   0.008182  -0.004542
     18      -0.530249  -0.037433   0.014345  -0.259269  -0.190925  -0.451145
     19      -0.144189  -0.028237   0.010018  -0.057820  -0.282933  -0.195573
     20      -0.104891   0.004287  -0.006678  -0.137956  -0.137390  -0.234571
     21      -0.080736   0.010896   0.001555  -0.498116  -0.502612   0.067320
     22       0.083353   0.012596  -0.011995   0.147922   0.051382  -0.202017
     23      -0.175536  -0.020410   0.021350  -0.184866   0.144701   0.554302
     24      -0.021459   0.000244  -0.001481  -0.361740  -0.286828  -0.050059
     25      -0.169306  -0.030593   0.025138  -0.401060  -0.250071   0.405155
     26      -0.116610  -0.030591   0.023877  -0.039251   0.024458   0.399400
     27      -0.393804   0.235605  -0.422125   0.385792  -0.446481   0.101001
     28      -0.068358   0.230488   0.068644   0.115343  -0.123018   0.028486
     29       0.124818  -0.064118  -0.114735  -0.186939   0.202997  -0.036248
     30       0.383704   0.280267   0.249704  -0.056885   0.053380  -0.013404
     31       0.027045  -0.420186  -0.036894   0.050463  -0.073336   0.014683
     32       0.062949   0.293884   0.087566  -0.065615   0.092351  -0.024101
     33       0.213009  -0.043198  -0.465240   0.068924  -0.089280   0.018870
     34      -0.097605   0.130320   0.359658   0.170585  -0.216954   0.046979
     35       0.082285  -0.015501  -0.189103   0.008320  -0.020508   0.008564
     36      -0.140453  -0.078991  -0.160216   0.137401  -0.145993   0.034834
     37      -0.088273   0.407090   0.147725   0.050319  -0.049605   0.012307
     38      -0.022016  -0.283641  -0.215266   0.058620  -0.064082   0.019106
     39       0.177447  -0.244516   0.292898  -0.044463   0.038638  -0.015615
     40       0.237502  -0.380888  -0.309246  -0.110541   0.101316  -0.030217
     41      -0.021305   0.081940   0.117770   0.004171  -0.006446  -0.000412
                 30         31         32         33         34         35    
      0       0.032529   0.001437   0.003747   0.064610  -0.043198  -0.024691
      1      -0.042257   0.000016   0.000302   0.017151  -0.020824   0.085193
      2       0.005306   0.001123  -0.001724   0.026028  -0.023425  -0.016589
      3      -0.009622  -0.002922  -0.015778  -0.419404   0.000491   0.000217
      4      -0.030237  -0.003898  -0.002353  -0.168131  -0.000287   0.001005
      5       0.018364   0.008215  -0.021505  -0.549526  -0.001431  -0.000078
      6      -0.000677  -0.002976   0.006419   0.237665   0.000606  -0.000125
      7       0.001482   0.000357   0.001379   0.102017   0.000287   0.000346
      8      -0.005983  -0.004436   0.021279   0.383536   0.000926  -0.000082
      9       0.017442   0.039748  -0.021707   0.039007  -0.000113  -0.000312
     10       0.013989   0.016168  -0.023531   0.026083   0.000597  -0.000472
     11      -0.014456  -0.005745   0.008051   0.000371   0.000428  -0.000558
     12       0.001225   0.005123   0.007078  -0.010520  -0.000107  -0.000077
     13      -0.002785  -0.099680   0.043105  -0.021094  -0.000175   0.000040
     14       0.001724   0.042053  -0.007041   0.007566   0.000036   0.000027
     15      -0.004753  -0.008499   0.075923  -0.017925  -0.000003   0.000060
     16       0.004365  -0.011588  -0.043331   0.008518  -0.000056  -0.000056
     17       0.002016   0.000600   0.022989  -0.015510  -0.000004  -0.000059
     18      -0.213883  -0.000680  -0.010202  -0.191783   0.152638   0.018472
     19       0.652694   0.017308  -0.005136  -0.056510  -0.033565   0.012656
     20      -0.172061  -0.001358  -0.007914  -0.105693  -0.340559  -0.051663
     21       0.287467   0.001028  -0.000404   0.130842   0.061013  -0.074004
     22       0.058074   0.006828  -0.005518  -0.039439   0.650942  -0.627779
     23      -0.313162  -0.017548   0.014183   0.113546   0.223096  -0.235615
     24      -0.404393  -0.017437   0.000716   0.110753   0.289172   0.350539
     25       0.027490  -0.012730   0.011462   0.143447  -0.370123  -0.416958
     26       0.365573   0.003128   0.009837   0.084554   0.398546   0.486590
     27      -0.066225  -0.049332   0.026058  -0.111920  -0.001784   0.001516
     28      -0.027925   0.004254   0.003051  -0.049503  -0.005245   0.005881
     29       0.044320   0.032777  -0.031514   0.101711  -0.006148   0.006780
     30       0.000979   0.064081  -0.044561   0.038814   0.000042  -0.000058
     31      -0.027258   0.398766  -0.049457   0.038063   0.000719  -0.000840
     32       0.030152  -0.553986   0.098938  -0.064475   0.000646  -0.000598
     33      -0.003921  -0.118278   0.049201   0.009189   0.000264   0.000014
     34      -0.043036   0.633950  -0.127257   0.054108   0.000071  -0.000044
     35      -0.007575   0.174628  -0.034875   0.031425  -0.000437   0.000257
     36      -0.023815  -0.102296  -0.317002   0.123078   0.000494   0.000279
     37      -0.006488   0.022783   0.085099  -0.002714  -0.000275   0.000022
     38      -0.010145  -0.145042  -0.567267   0.150066  -0.000196  -0.000003
     39       0.005212  -0.128713  -0.543020   0.256053   0.000093   0.000661
     40       0.012596   0.125556   0.459183  -0.085446   0.000207   0.000383
     41      -0.000500   0.025583   0.126177  -0.039836   0.001060   0.001294
                 36         37         38         39         40         41    
      0      -0.000133   0.020688  -0.000258  -0.000003   0.000036   0.000023
      1      -0.000010  -0.010133   0.001132   0.000054   0.000255   0.000132
      2       0.000285  -0.089692   0.001371  -0.000087   0.000567   0.000029
      3       0.000207  -0.001005   0.001028  -0.000049  -0.000166   0.000553
      4      -0.000127  -0.000566   0.000033  -0.000507  -0.000261  -0.000098
      5       0.000407  -0.001826  -0.000849  -0.000081  -0.002166   0.000220
      6      -0.000143   0.000371  -0.000261   0.000118   0.001054   0.000184
      7      -0.000050   0.000227   0.000041   0.000114   0.000141  -0.000002
      8      -0.000176   0.000732  -0.000763   0.000276   0.001210  -0.000017
      9      -0.001361  -0.000131   0.020002  -0.001445   0.002101   0.001582
     10      -0.000527   0.000686   0.054844  -0.003537  -0.001279   0.000839
     11       0.002297   0.001046   0.065974  -0.003232   0.001334  -0.000081
     12       0.003774  -0.000030   0.000926   0.023089   0.001157  -0.000089
     13       0.063007   0.000174  -0.006131  -0.029435   0.001341  -0.001101
     14      -0.015929  -0.000029  -0.004770  -0.095650   0.000993   0.000581
     15       0.001685  -0.000123  -0.001521  -0.000209   0.023491  -0.046821
     16      -0.001155  -0.000010  -0.000363   0.000538  -0.003940   0.034632
     17       0.001115   0.000045  -0.002181   0.003093   0.058903   0.054445
     18       0.001729  -0.392644   0.003007  -0.000361  -0.001658   0.000366
     19      -0.000276   0.075216  -0.001058   0.000245  -0.000570   0.000105
     20      -0.003396   0.837087  -0.008833   0.000693  -0.000148  -0.000385
     21       0.000227   0.023071  -0.001404   0.000281   0.001590   0.000411
     22       0.000105   0.220007  -0.014264   0.000462   0.000210  -0.000476
     23       0.000020   0.063926  -0.004903   0.000059  -0.000168  -0.000320
     24      -0.000405   0.135299  -0.001588  -0.000058   0.002668  -0.000201
     25       0.000631  -0.170213   0.001741  -0.000376  -0.000568   0.000029
     26      -0.000645   0.174301  -0.000975   0.000309   0.000854  -0.000215
     27      -0.008597  -0.003464  -0.209426   0.011209  -0.009490  -0.002018
     28      -0.022547  -0.008446  -0.620034   0.041550  -0.001340  -0.004041
     29      -0.022495  -0.009921  -0.747773   0.041774  -0.000281  -0.005832
     30       0.108837   0.000488  -0.013485  -0.092384   0.000006   0.004668
     31      -0.563332  -0.002092   0.044519   0.508588  -0.005942  -0.006021
     32      -0.467197  -0.001699   0.039600   0.413521  -0.008841  -0.000308
     33      -0.155744  -0.000444  -0.002886  -0.176748  -0.005721   0.001131
     34      -0.135940  -0.000415  -0.004872  -0.155863   0.008875   0.001421
     35       0.635944   0.002172   0.021849   0.701160  -0.014919  -0.009350
     36       0.003427   0.000484  -0.001151   0.003720  -0.167434   0.665093
     37      -0.002816  -0.000418   0.007143   0.002990   0.112200  -0.458249
     38      -0.000160  -0.000160   0.004381  -0.006893   0.123487  -0.545368
     39      -0.000253   0.000414  -0.006342  -0.001908  -0.200401  -0.046405
     40      -0.001829   0.000109  -0.003096  -0.008596  -0.061010  -0.011250
     41      -0.000597   0.000436   0.003558  -0.017740  -0.946380  -0.203439


-----------
IR SPECTRUM
-----------

 Mode    freq (cm**-1)   T**2         TX         TY         TZ
-------------------------------------------------------------------
   6:       106.43    5.621720  ( -0.325959   2.348499   0.004540)
   7:       120.43    0.628724  ( -0.211703   0.763237   0.037072)
   8:       252.70    0.656426  (  0.038250  -0.790400  -0.173870)
   9:       266.39   22.611356  (  2.805782   0.264227  -3.830030)
  10:       384.67   28.329775  (  4.973622   1.382052  -1.297226)
  11:       592.24    1.355588  ( -0.745935  -0.435194   0.780882)
  12:       613.03   11.165787  (  2.674017   0.296712  -1.981762)
  13:       744.56    7.803362  (  1.662594   0.658873  -2.145933)
  14:       867.01    6.842491  (  1.855411  -1.515240   1.050708)
  15:       891.42   14.073870  ( -3.417352  -0.565389   1.440801)
  16:       915.92    4.883290  (  1.149926  -1.461863   1.193279)
  17:       926.09   24.377023  ( -4.841021  -0.368081   0.897806)
  18:       976.63    1.329873  (  0.765281   0.857334   0.095894)
  19:      1046.32   24.659783  ( -2.158774  -4.425162  -0.646080)
  20:      1077.50   59.626154  ( -5.070985  -5.812319  -0.358074)
  21:      1110.44   28.453366  (  4.112650   2.739563  -2.008549)
  22:      1159.20    2.375539  (  0.143384   1.149769  -1.016371)
  23:      1175.94    7.913494  ( -0.693727  -0.207868   2.718277)
  24:      1213.06   84.717333  (  7.600817   2.094363  -4.749586)
  25:      1255.10    3.410140  ( -1.244527  -1.319266  -0.347604)
  26:      1277.65   12.286747  ( -0.037674   1.239027  -3.278741)
  27:      1377.27   18.157501  ( -2.350753   0.228726  -3.546709)
  28:      1405.50   82.214487  ( -7.478232  -4.005723   3.200738)
  29:      1443.74   19.328611  (  2.112269   1.282222   3.636322)
  30:      1453.43   16.619587  ( -2.324664   3.344055   0.181162)
  31:      1483.07   12.110924  ( -1.783936   2.988032  -0.012673)
  32:      1568.84   99.703715  ( -9.158730   2.056306  -3.404848)
  33:      1829.40  110.387954  ( -5.291002  -1.878736  -8.880518)
  34:      3049.14   11.129101  (  3.094938   1.043758  -0.678990)
  35:      3112.08    0.542272  (  0.112867  -0.725570  -0.055510)
  36:      3170.75    3.886088  (  0.064099  -1.965302   0.139883)
  37:      3187.54    1.638864  (  0.367150   0.423896   1.150816)
  38:      3217.84    4.862207  ( -0.402259  -1.289756  -1.742677)
  39:      3278.09   10.587600  ( -0.779286   1.022851   2.988995)
  40:      3332.66  134.640748  ( -1.401622   2.271861 -11.292247)
  41:      3584.06  186.850179  (  9.852805  -4.786801  -8.176733)

The first frequency considered to be a vibration is 6
The total number of vibrations considered is 36


--------------------------
THERMOCHEMISTRY AT 298.15K
--------------------------

Temperature         ... 298.15 K
Pressure            ... 1.00 atm
Total Mass          ... 86.11 AMU

Throughout the following assumptions are being made:
  (1) The electronic state is orbitally nondegenerate
  (2) There are no thermally accessible electronically excited states
  (3) Hindered rotations indicated by low frequency modes) are not
      treated as such but are treated as vibrations and this may
      case some error
  (4) All equations used are the standard statistical mechanics
      equations for an ideal gas
  (5) All vibrations are strinctly harmonic


------------
INNER ENERGY
------------

The inner energy is: U= E(el) + E(ZPE) + E(vib) + E(rot) + E(trans)
    E(el)   - is the total energy from the electronic structure calculation
              = E(kin-el) + E(nuc-el) + E(el-el) + E(nuc-nuc)
    E(ZPE)  - the the zero temperature vibrational energy from the frequency calculation
    E(vib)  - the the finite temperature correction to E(ZPE) due to population
              of excietd vibrational states
    E(rot)  - is the rotational thermal energy
    E(trans)- is the translational thermal energy

Summary of contributions to the inner energy U:
Electronic energy                ...   -286.71143280 Eh
Zero point energy                ...      0.12180479 Eh      76.43 kcal/mol
Thermal vibrational correction   ...      0.00355967 Eh       2.23 kcal/mol
Thermal rotational correction    ...      0.00141627 Eh       0.89 kcal/mol
Thermal translational correction ...      0.00141627 Eh       0.89 kcal/mol
-----------------------------------------------------------------------
Total thermal energy                   -286.58323579 Eh


Summary of corrections to the electronic energy:
(perhaps to be used in another calculation)
Total thermal correction                  0.00639221 Eh       4.01 kcal/mol
Non-thermal (ZPE) correction              0.12180479 Eh      76.43 kcal/mol
-----------------------------------------------------------------------
Total correction                          0.12819700 Eh      80.44 kcal/mol


--------
ENTHALPY
--------

The enthalpy is H = U + kB*T
                kB is Boltzmann's constant
Total free energy                 ...   -286.58323579 Eh 
Thermal Enthalpy correction       ...      0.00094421 Eh       0.59 kcal/mol
-----------------------------------------------------------------------
Total Enthalpy                    ...   -286.58229159 Eh


-------
ENTROPY
-------

The entropy contributions are T*S = T*(S(el)+S(vib)+S(rot)+S(trans)
     S(el)   - electronic entropy
     S(vib)  - vibrational entropy
     S(rot)  - rotational entropy
     S(trans)- translational entropy
The entropies will be listed as mutliplied by the temperature to get
units of energy

Electronic entropy                ...      0.00000000 Eh      0.00 kcal/mol
Vibrational entropy               ...      0.00621660 Eh      3.90 kcal/mol
Rotational entropy                ...      0.01147898 Eh      7.20 kcal/mol
Translational entropy             ...      0.01865951 Eh     11.71 kcal/mol
-----------------------------------------------------------------------
Final entropy term                ...      0.03635509 Eh     22.81 kcal/mol


CAUTION: The rotational entropy is not quite correctly treated here
         because it includes a symmetry number that is not yet correctly
         implemented in ORCA!
For a nonlinear molecule the correct rotational entropy is:
    S(rot) = R*(ln(qrot/sn)+1.5)
    R    = 8.31441 J/mol/K = 1.987191683e-3 kcal/mol/K
    qrot = 127543.8448908
    sn is the rotational symmetry number. We have assumed 3 here
       if it is different for your molecule then you should correct
       the printed rotational entropy by manually evaluating the equation
       as given above

For convenience we print out the resulting values for sn=1 - 12:
 sn= 1  qrot/sn=  127543.8449 T*S(rot)=     7.85 kcal/mol T*S(tot)=    23.46 kcal/mol
 sn= 2  qrot/sn=   63771.9224 T*S(rot)=     7.44 kcal/mol T*S(tot)=    23.05 kcal/mol
 sn= 3  qrot/sn=   42514.6150 T*S(rot)=     7.20 kcal/mol T*S(tot)=    22.81 kcal/mol
 sn= 4  qrot/sn=   31885.9612 T*S(rot)=     7.03 kcal/mol T*S(tot)=    22.64 kcal/mol
 sn= 5  qrot/sn=   25508.7690 T*S(rot)=     6.90 kcal/mol T*S(tot)=    22.51 kcal/mol
 sn= 6  qrot/sn=   21257.3075 T*S(rot)=     6.79 kcal/mol T*S(tot)=    22.40 kcal/mol
 sn= 7  qrot/sn=   18220.5493 T*S(rot)=     6.70 kcal/mol T*S(tot)=    22.31 kcal/mol
 sn= 8  qrot/sn=   15942.9806 T*S(rot)=     6.62 kcal/mol T*S(tot)=    22.23 kcal/mol
 sn= 9  qrot/sn=   14171.5383 T*S(rot)=     6.55 kcal/mol T*S(tot)=    22.16 kcal/mol
 sn=10  qrot/sn=   12754.3845 T*S(rot)=     6.49 kcal/mol T*S(tot)=    22.10 kcal/mol
 sn=11  qrot/sn=   11594.8950 T*S(rot)=     6.43 kcal/mol T*S(tot)=    22.04 kcal/mol
 sn=12  qrot/sn=   10628.6537 T*S(rot)=     6.38 kcal/mol T*S(tot)=    21.99 kcal/mol


-------------------
GIBBS FREE ENTHALPY
-------------------

The Gibbs free enthalpy is G = H - T*S

Total enthalpy                    ...   -286.58229159 Eh 
Total entropy correction          ...     -0.03635509 Eh    -22.81 kcal/mol
-----------------------------------------------------------------------
Final Gibbs free enthalpy         ...   -286.61864668 Eh

For completeness - the Gibbs free enthalpy minus the electronic energy
G-E(el)                           ...      0.09278612 Eh     58.22 kcal/mol


Timings for individual modules:

Sum of individual times         ...     1199.020 sec (=  19.984 min)
GTO integral calculation        ...        5.998 sec (=   0.100 min)   0.5 %
SCF iterations                  ...      100.311 sec (=   1.672 min)   8.4 %
SCF Gradient evaluation         ...       46.539 sec (=   0.776 min)   3.9 %
Geometry relaxation             ...        0.183 sec (=   0.003 min)   0.0 %
Analytical frequency calculation...     1045.988 sec (=  17.433 min)  87.2 %
                             ****ORCA TERMINATED NORMALLY****
TOTAL RUN TIME: 0 days 0 hours 20 minutes 0 seconds 696 msec
