
                                 *****************
                                 * O   R   C   A *
                                 *****************

           --- An Ab Initio, DFT and Semiempirical electronic structure package ---

                  #######################################################
                  #                        -***-                        #
                  #  Department of molecular theory and spectroscopy    #
                  #              Directorship: Frank Neese              #
                  # Max Planck Institute for Chemical Energy Conversion #
                  #                  D-45470 Muelheim/Ruhr              #
                  #                       Germany                       #
                  #                                                     #
                  #                  All rights reserved                #
                  #                        -***-                        #
                  #######################################################


                         Program Version 3.0.3 - RELEASE   -


 With contributions from (in alphabetic order):
   Ute Becker             : Parallelization
   Dmytro Bykov           : SCF Hessian
   Dmitry Ganyushin       : Spin-Orbit,Spin-Spin,Magnetic field MRCI
   Andreas Hansen         : Spin unrestricted coupled pair/coupled cluster methods
   Dimitrios Liakos       : Extrapolation schemes; parallel MDCI
   Robert Izsak           : Overlap fitted RIJCOSX, COSX-SCS-MP3
   Christian Kollmar      : KDIIS, OOCD, Brueckner-CCSD(T), CCSD density
   Simone Kossmann        : Meta GGA functionals, TD-DFT gradient, OOMP2, MP2 Hessian
   Taras Petrenko         : DFT Hessian,TD-DFT gradient, ASA and ECA modules, normal mode analysis, Resonance Raman, ABS, FL, XAS/XES, NRVS
   Christoph Reimann      : Effective Core Potentials
   Michael Roemelt        : Restricted open shell CIS
   Christoph Riplinger    : Improved optimizer, TS searches, QM/MM, DLPNO-CCSD
   Barbara Sandhoefer     : DKH picture change effects
   Igor Schapiro          : Molecular dynamics
   Kantharuban Sivalingam : CASSCF convergence, NEVPT2
   Boris Wezisla          : Elementary symmetry handling
   Frank Wennmohs         : Technical directorship


 We gratefully acknowledge several colleagues who have allowed us to
 interface, adapt or use parts of their codes:
   Stefan Grimme, W. Hujo, H. Kruse, T. Risthaus : VdW corrections, initial TS optimization,
                                                   DFT functionals, gCP
   Ed Valeev                                     : LibInt (2-el integral package), F12 methods
   Garnet Chan, S. Sharma, R. Olivares           : DMRG
   Ulf Ekstrom                                   : XCFun DFT Library
   Mihaly Kallay                                 : mrcc  (arbitrary order and MRCC methods)
   Andreas Klamt, Michael Diedenhofen            : otool_cosmo (COSMO solvation model)
   Frank Weinhold                                : gennbo (NPA and NBO analysis)
   Christopher J. Cramer and Donald G. Truhlar   : smd solvation model


 Your calculation uses the libint2 library for the computation of 2-el integrals
 For citations please refer to: http://libint.valeyev.net

 This ORCA versions uses:
   CBLAS   interface :  Fast vector & matrix operations
   LAPACKE interface :  Fast linear algebra routines
   SCALAPACK package :  Parallel linear algebra routines


Your calculation utilizes the basis: Ahlrichs-TZV
Cite in your paper:
H - Kr: A. Schaefer, H. Horn and R. Ahlrichs, J. Chem. Phys. 97, 2571 (1992).

The def2-TZV basis will be loaded
Cite in your paper:
 	F. Weigend, R. Ahlrichs, Phys. Chem. Chem. Phys. 2005, 7, 3297.

================================================================================
                                        WARNINGS
                       Please study these warnings very carefully!
================================================================================
Now building the actual basis set
WARNING: Geometry optimizations can change the point-group symmetry!

WARNING: Geometry Optimization
  ===> : Switching off AutoStart
         For restart on a previous wavefunction, please use MOREAD


INFO   : the flag for use of LIBINT has been found!

================================================================================
                                       INPUT FILE
================================================================================
NAME = 1057_+.inp
|  1> ! NORI PBE0 def2-TZVP UseSym TightOPT Freq TightSCF Grid3 FinalGrid5 XYZFile
|  2> % pal
|  3>     nprocs 8
|  4> end
|  5> %method
|  6>     SymThresh 5.0e-2
|  7> end
|  8> % geom 
|  9>     MaxIter 10
| 10> end 
| 11> % maxcore 2000
| 12> % output
| 13>     printlevel mini
| 14>     print[ P_Basis ] 0
| 15>     print[ P_SCFInfo ] 1
| 16>     print[ P_SCFIterInfo ] 1
| 17>     print[ P_OrbEn ] 0
| 18>     print[ P_Cartesian ] 0
| 19> end
| 20> % elprop
| 21>     Dipole false
| 22> end
| 23> *xyz 1 1
| 24>  C        1.2097985533     0.1485038018    -0.3305282706 
| 25>  N        2.5834731979    -0.2846478768    -0.7117244732 
| 26>  C        3.4432763328    -0.6936818901     0.4465422191 
| 27>  C        4.8118285133    -1.1066279740    -0.0145867388 
| 28>  C        5.9070309174    -0.1322789534    -0.0811943024 
| 29>  O        5.7829295377    -1.0420690874     0.9944071015 
| 30>  H        0.6607904313     0.4233151157    -1.2293737929 
| 31>  H        1.2893750928     1.0033420584     0.3382925885 
| 32>  H        0.7139568744    -0.6770007254     0.1764663519 
| 33>  H        3.0548411488     0.4698816149    -1.2158445548 
| 34>  H        2.5205610132    -1.0629292393    -1.3718440167 
| 35>  H        2.9237602077    -1.5081503186     0.9557001330 
| 36>  H        3.5111577987     0.1586449800     1.1238875625 
| 37>  H        4.8580859502    -1.9982799966    -0.6412174909 
| 38>  H        5.7239464653     0.9103772962     0.1721891546 
| 39>  H        6.7361479651    -0.3190488053    -0.7572314710 
| 40> *
| 41> 
| 42>                          ****END OF INPUT****
================================================================================

The point group is C1 - hence turning off symmetry
If this is a round-off problem, please increase the symmetry
        detection tolerance (%method SymThresh)


                       *****************************
                       * Geometry Optimization Run *
                       *****************************

Geometry optimization settings:
Update method            Update   .... BFGS
Choice of coordinates    CoordSys .... Redundant Internals
Initial Hessian          InHess   .... Almoef's Model

Convergence Tolerances:
Energy Change            TolE     ....  1.0000e-06 Eh
Max. Gradient            TolMAXG  ....  1.0000e-04 Eh/bohr
RMS Gradient             TolRMSG  ....  3.0000e-05 Eh/bohr
Max. Displacement        TolMAXD  ....  1.0000e-03 bohr
RMS Displacement         TolRMSD  ....  6.0000e-04 bohr

------------------------------------------------------------------------------
                        ORCA OPTIMIZATION COORDINATE SETUP
------------------------------------------------------------------------------

The optimization will be done in new redundant internal coordinates
Making redundant internal coordinates   ...  (new redundants) done
Evaluating the initial hessian          ...  (Almloef) done
Evaluating the coordinates              ...  done
Calculating the B-matrix                .... done
Calculating the G-matrix                .... done
Diagonalizing the G-matrix              .... done
The first mode is                       ....   44
The number of degrees of freedom        ....   42

    -----------------------------------------------------------------
                    Redundant Internal Coordinates


    -----------------------------------------------------------------
         Definition                    Initial Value    Approx d2E/dq
    -----------------------------------------------------------------
      1. B(N   1,C   0)                  1.4899         0.387643   
      2. B(C   2,N   1)                  1.4994         0.374421   
      3. B(C   3,C   2)                  1.5020         0.413999   
      4. B(C   4,C   3)                  1.4674         0.470168   
      5. B(O   5,C   4)                  1.4142         0.511945   
      6. B(O   5,C   3)                  1.4019         0.535696   
      7. B(H   6,C   0)                  1.0885         0.362076   
      8. B(H   7,C   0)                  1.0883         0.362353   
      9. B(H   8,C   0)                  1.0883         0.362378   
     10. B(H   9,N   1)                  1.0226         0.413188   
     11. B(H  10,N   1)                  1.0225         0.413338   
     12. B(H  11,C   2)                  1.0920         0.357444   
     13. B(H  12,C   2)                  1.0908         0.359031   
     14. B(H  13,C   3)                  1.0908         0.359041   
     15. B(H  14,C   4)                  1.0885         0.362076   
     16. B(H  15,C   4)                  1.0860         0.365463   
     17. A(H   6,C   0,H   8)          110.2672         0.291378   
     18. A(N   1,C   0,H   8)          108.5865         0.324680   
     19. A(N   1,C   0,H   7)          108.5523         0.324676   
     20. A(N   1,C   0,H   6)          109.0952         0.324635   
     21. A(H   7,C   0,H   8)          110.0494         0.291413   
     22. A(H   6,C   0,H   7)          110.2456         0.291375   
     23. A(C   2,N   1,H   9)          108.5297         0.327077   
     24. A(C   0,N   1,C   2)          114.2274         0.361262   
     25. A(H   9,N   1,H  10)          105.7677         0.298844   
     26. A(C   2,N   1,H  10)          109.0484         0.327097   
     27. A(C   0,N   1,H  10)          109.2529         0.328974   
     28. A(C   0,N   1,H   9)          109.6706         0.328955   
     29. A(H  11,C   2,H  12)          108.8359         0.290366   
     30. A(C   3,C   2,H  12)          110.4111         0.329693   
     31. A(N   1,C   2,H  12)          107.5905         0.322345   
     32. A(C   3,C   2,H  11)          111.8116         0.329452   
     33. A(N   1,C   2,H  11)          106.9082         0.322111   
     34. A(N   1,C   2,C   3)          111.1198         0.367638   
     35. A(C   2,C   3,C   4)          120.7582         0.384810   
     36. A(O   5,C   3,H  13)          114.9443         0.342052   
     37. A(C   4,C   3,H  13)          119.0153         0.336727   
     38. A(C   2,C   3,H  13)          116.0869         0.329695   
     39. A(C   4,C   3,O   5)           59.0080         0.399996   
     40. A(C   2,C   3,O   5)          113.4238         0.391169   
     41. A(O   5,C   4,H  15)          115.4559         0.340475   
     42. A(C   3,C   4,H  15)          118.9395         0.337723   
     43. A(O   5,C   4,H  14)          115.1134         0.339945   
     44. A(C   3,C   4,H  14)          119.9950         0.337199   
     45. A(C   3,C   4,O   5)           58.1852         0.396821   
     46. A(H  14,C   4,H  15)          115.9803         0.291767   
     47. A(C   3,O   5,C   4)           62.8068         0.403438   
     48. D(H   9,N   1,C   0,H   8)    178.2492         0.013747   
     49. D(H  10,N   1,C   0,H   8)     62.7480         0.013747   
     50. D(H  10,N   1,C   0,H   7)   -177.6232         0.013747   
     51. D(C   2,N   1,C   0,H   6)   -179.8902         0.013747   
     52. D(C   2,N   1,C   0,H   8)    -59.6814         0.013747   
     53. D(H   9,N   1,C   0,H   7)    -62.1220         0.013747   
     54. D(C   2,N   1,C   0,H   7)     59.9474         0.013747   
     55. D(H   9,N   1,C   0,H   6)     58.0403         0.013747   
     56. D(H  10,N   1,C   0,H   6)    -57.4608         0.013747   
     57. D(H  11,C   2,N   1,H   9)   -179.1582         0.012849   
     58. D(C   3,C   2,N   1,H  10)     57.8657         0.012849   
     59. D(C   3,C   2,N   1,H   9)    -56.9009         0.012849   
     60. D(C   3,C   2,N   1,C   0)   -179.5933         0.012849   
     61. D(H  11,C   2,N   1,H  10)    -64.3917         0.012849   
     62. D(H  12,C   2,N   1,H  10)    178.8409         0.012849   
     63. D(H  12,C   2,N   1,H   9)     64.0743         0.012849   
     64. D(H  12,C   2,N   1,C   0)    -58.6182         0.012849   
     65. D(H  11,C   2,N   1,C   0)     58.1493         0.012849   
     66. D(H  13,C   3,C   2,H  11)     54.4305         0.013570   
     67. D(H  13,C   3,C   2,N   1)    -64.9369         0.013570   
     68. D(O   5,C   3,C   2,H  12)     39.3868         0.013570   
     69. D(O   5,C   3,C   2,H  11)    -81.9438         0.013570   
     70. D(O   5,C   3,C   2,N   1)    158.6888         0.013570   
     71. D(C   4,C   3,C   2,H  12)    -27.3353         0.013570   
     72. D(C   4,C   3,C   2,H  11)   -148.6658         0.013570   
     73. D(H  13,C   3,C   2,H  12)    175.7610         0.013570   
     74. D(C   4,C   3,C   2,N   1)     91.9668         0.013570   
     75. D(H  14,C   4,C   3,O   5)   -102.6256         0.017467   
     76. D(H  14,C   4,C   3,C   2)     -2.1297         0.017467   
     77. D(O   5,C   4,C   3,H  13)   -103.2626         0.017467   
     78. D(O   5,C   4,C   3,C   2)    100.4959         0.017467   
     79. D(H  15,C   4,C   3,H  13)      0.3264         0.017467   
     80. D(H  15,C   4,C   3,O   5)    103.5890         0.017467   
     81. D(H  15,C   4,C   3,C   2)   -155.9151         0.017467   
     82. D(H  14,C   4,C   3,H  13)    154.1119         0.017467   
     83. D(C   3,O   5,C   4,H  15)   -109.5936         0.020754   
     84. D(C   3,O   5,C   4,H  14)    111.0357         0.020754   
     85. D(C   4,O   5,C   3,H  13)    110.1601         0.022812   
     86. D(C   4,O   5,C   3,C   2)   -112.9505         0.022812   
    -----------------------------------------------------------------

Number of atoms                         .... 16
Number of degrees of freedom            .... 86

         *************************************************************
         *                GEOMETRY OPTIMIZATION CYCLE   1            *
         *************************************************************


           ************************************************************
           *        Program running with 8 parallel MPI-processes     *
           *              working on a common directory               *
           ************************************************************
           ************************************************************
           *              Shut down parallel processing               *
           ************************************************************


           ************************************************************
           *        Program running with 8 parallel MPI-processes     *
           *              working on a common directory               *
           ************************************************************
------------
SCF SETTINGS
------------
Hamiltonian:
 Density Functional     Method          .... DFT(GTOs)
 Exchange Functional    Exchange        .... PBE
   PBE kappa parameter  XKappa          ....  0.804000
 Correlation Functional Correlation     .... PBE
 LDA part of GGA corr.  LDAOpt          .... PW91-LDA
 Gradients option       PostSCFGGA      .... off
 Hybrid DFT is turned on
   Fraction HF Exchange ScalHFX         ....  0.250000
   Scaling of DF-GGA-X  ScalDFX         ....  0.750000
   Scaling of DF-GGA-C  ScalDFC         ....  1.000000
   Scaling of DF-LDA-C  ScalLDAC        ....  1.000000
   Perturbative correction              ....  0.000000
   NL short-range parameter             ....  6.900000


General Settings:
 Integral files         IntName         .... 1057_+
 Hartree-Fock type      HFTyp           .... RHF
 Total Charge           Charge          ....    1
 Multiplicity           Mult            ....    1
 Number of Electrons    NEL             ....   48
 Basis Dimension        Dim             ....  246
 Nuclear Repulsion      ENuc            ....    253.9667232485 Eh

Convergence Acceleration:
 DIIS                   CNVDIIS         .... on
   Start iteration      DIISMaxIt       ....    12
   Startup error        DIISStart       ....  0.200000
   # of expansion vecs  DIISMaxEq       ....     5
   Bias factor          DIISBfac        ....   1.050
   Max. coefficient     DIISMaxC        ....  10.000
 Newton-Raphson         CNVNR           .... off
 SOSCF                  CNVSOSCF        .... on
   Start iteration      SOSCFMaxIt      ....   150
   Startup grad/error   SOSCFStart      ....  0.003300
 Level Shifting         CNVShift        .... on
   Level shift para.    LevelShift      ....    0.2500
   Turn off err/grad.   ShiftErr        ....    0.0010
 Zerner damping         CNVZerner       .... off
 Static damping         CNVDamp         .... on
   Fraction old density DampFac         ....    0.7000
   Max. Damping (<1)    DampMax         ....    0.9800
   Min. Damping (>=0)   DampMin         ....    0.0000
   Turn off err/grad.   DampErr         ....    0.1000
 Fernandez-Rico         CNVRico         .... off

SCF Procedure:
 Maximum # iterations   MaxIter         ....   125
 SCF integral mode      SCFMode         .... Direct
   Integral package                     .... LIBINT
 Reset frequeny         DirectResetFreq ....    20
 Integral Threshold     Thresh          ....  2.500e-11 Eh
 Primitive CutOff       TCut            ....  2.500e-12 Eh

Convergence Tolerance:
 Convergence Check Mode ConvCheckMode   .... Total+1el-Energy
 Energy Change          TolE            ....  1.000e-08 Eh
 1-El. energy change                    ....  1.000e-05 Eh
 Orbital Gradient       TolG            ....  1.000e-05
 Orbital Rotation angle TolX            ....  1.000e-05
 DIIS Error             TolErr          ....  5.000e-07


Diagonalization of the overlap matrix:
Smallest eigenvalue                        ... 1.680e-04
Time for diagonalization                   ...    0.040 sec
Threshold for overlap eigenvalues          ... 1.000e-08
Number of eigenvalues below threshold      ... 0
Time for construction of square roots      ...    0.011 sec
Total time needed                          ...    0.051 sec

-------------------
DFT GRID GENERATION
-------------------

General Integration Accuracy     IntAcc      ...  4.340
Radial Grid Type                 RadialGrid  ... Gauss-Chebyshev
Angular Grid (max. acc.)         AngularGrid ... Lebedev-194
Angular grid pruning method      GridPruning ... 3 (G Style)
Weight generation scheme         WeightScheme... Becke
Basis function cutoff            BFCut       ...    1.0000e-11
Integration weight cutoff        WCut        ...    1.0000e-14
Grids for H and He will be reduced by one unit

# of grid points (after initial pruning)     ...  35088 (   0.0 sec)
# of grid points (after weights+screening)   ...  32472 (   0.0 sec)
nearest neighbour list constructed           ...    0.0 sec
Grid point re-assignment to atoms done       ...    0.0 sec
Grid point division into batches done        ...    0.1 sec
Reduced shell lists constructed in    0.1 sec

Total number of grid points                  ...    32472
Total number of batches                      ...      514
Average number of points per batch           ...       63
Average number of grid points per atom       ...     2030
Average number of shells per batch           ...    84.30 (79.53%)
Average number of basis functions per batch  ...   197.97 (80.48%)
Average number of large shells per batch     ...    70.64 (83.79%)
Average number of large basis fcns per batch ...   165.09 (83.39%)
Maximum spatial batch extension              ...   2.48,  2.35,  2.37 au
Average spatial batch extension              ...   0.14,  0.15,  0.14 au

Time for grid setup =    0.190 sec

Loading Hartree-Fock densities                     ... done
Calculating cut-offs                               ... done
Setting up the integral package                    ... done
Initializing the effective Hamiltonian             ... done
Starting the Coulomb interaction                   ... done (   0.0 sec)
Reading the grid                                   ... done
Mapping shells                                     ... done
Starting the XC term evaluation                    ... done (   0.2 sec)
  promolecular density results
     # of electrons  =     48.991754713
     EX              =    -38.156751129
     EC              =     -1.619224043
     EX+EC           =    -39.775975172
Transforming the Hamiltonian                       ... done (   0.0 sec)
Diagonalizing the Hamiltonian                      ... done (   0.0 sec)
Back transforming the eigenvectors                 ... done (   0.0 sec)
Now organizing SCF variables                       ... done
--------------
SCF ITERATIONS
--------------
ITER       Energy         Delta-E        Max-DP      RMS-DP      [F,P]     Damp
               ***  Starting incremental Fock matrix formation  ***
  0   -287.7967762525   0.000000000000 0.05528051  0.00098396  0.1595560 0.7000
  1   -287.8419687383  -0.045192485740 0.05381822  0.00082776  0.0640078 0.7000
                               ***Turning on DIIS***
  2   -287.8618922371  -0.019923498872 0.08646721  0.00154281  0.0317957 0.0000
  3   -287.8943324051  -0.032440167968 0.04563451  0.00058092  0.0359290 0.0000
  4   -287.8999357358  -0.005603330676 0.01023537  0.00014589  0.0111327 0.0000
  5   -287.9002148060  -0.000279070189 0.00478270  0.00006094  0.0042079 0.0000
                      *** Initiating the SOSCF procedure ***
                           *** Shutting down DIIS ***
                      *** Re-Reading the Fockian *** 
                      *** Removing any level shift *** 
ITER      Energy       Delta-E        Grad      Rot      Max-DP    RMS-DP
  6   -287.90025105  -0.0000362487  0.000115  0.000115  0.002217  0.000029
               *** Restarting incremental Fock matrix formation ***
  7   -287.90025208  -0.0000010253  0.000036  0.000092  0.000097  0.000003
  8   -287.90025205   0.0000000302  0.000040  0.000042  0.000120  0.000002
  9   -287.90025216  -0.0000001113  0.000008  0.000014  0.000021  0.000001
 10   -287.90025216   0.0000000016  0.000011  0.000009  0.000019  0.000000
                  ***Gradient check signals convergence***
              ***Rediagonalizing the Fockian in SOSCF/NRSCF***

               *****************************************************
               *                     SUCCESS                       *
               *           SCF CONVERGED AFTER  11 CYCLES          *
               *****************************************************

Setting up the final grid:

General Integration Accuracy     IntAcc      ...  5.010
Radial Grid Type                 RadialGrid  ... Gauss-Chebyshev
Angular Grid (max. acc.)         AngularGrid ... Lebedev-434
Angular grid pruning method      GridPruning ... 3 (G Style)
Weight generation scheme         WeightScheme... Becke
Basis function cutoff            BFCut       ...    1.0000e-11
Integration weight cutoff        WCut        ...    1.0000e-14
Grids for H and He will be reduced by one unit

# of grid points (after initial pruning)     ... 131144 (   0.0 sec)
# of grid points (after weights+screening)   ... 119937 (   0.1 sec)
nearest neighbour list constructed           ...    0.0 sec
Grid point re-assignment to atoms done       ...    0.0 sec
Grid point division into batches done        ...    0.9 sec
Reduced shell lists constructed in    1.1 sec

Total number of grid points                  ...   119937
Total number of batches                      ...     1882
Average number of points per batch           ...       63
Average number of grid points per atom       ...     7496
Average number of shells per batch           ...    84.08 (79.32%)
Average number of basis functions per batch  ...   197.95 (80.47%)
Average number of large shells per batch     ...    69.83 (83.05%)
Average number of large basis fcns per batch ...   163.78 (82.74%)
Maximum spatial batch extension              ...   1.95,  1.98,  2.47 au
Average spatial batch extension              ...   0.09,  0.10,  0.09 au

Final grid set up in    1.3 sec
Final integration                            ... done (   0.6 sec)
Change in XC energy                          ...     0.000197439
Integrated number of electrons               ...    48.000012153
Previous integrated no of electrons          ...    47.998843027
Total Energy       :         -287.90005472 Eh           -7834.15877 eV
  Last Energy change         ...   -4.0728e-09  Tolerance :   1.0000e-08
  Last MAX-Density change    ...    2.9704e-06  Tolerance :   1.0000e-07
             **** THE GBW FILE WAS UPDATED (1057_+.gbw) ****
             **** DENSITY FILE WAS UPDATED (1057_+.scfp.tmp) ****
             **** ENERGY FILE WAS UPDATED (1057_+.en.tmp) ****
Total SCF time: 0 days 0 hours 0 min 46 sec 
           ************************************************************
           *              Shut down parallel processing               *
           ************************************************************

-------------------------   --------------------
FINAL SINGLE POINT ENERGY      -287.900054724249
-------------------------   --------------------



           ************************************************************
           *        Program running with 8 parallel MPI-processes     *
           *              working on a common directory               *
           ************************************************************
------------------------------------------------------------------------------
                         ORCA SCF GRADIENT CALCULATION
------------------------------------------------------------------------------

Gradient of the Kohn-Sham DFT energy:
Kohn-Sham wavefunction type      ... RKS
Hartree-Fock exchange scaling    ...    0.250
Number of operators              ...    1
Number of atoms                  ...   16
Basis set dimensions             ...  246
Integral neglect threshold       ... 2.5e-11
Integral primitive cutoff        ... 2.5e-12

Nuclear repulsion gradient       ... done
One Electron Gradient            ... done
Pre-screening matrix             ... done
Starting the two electron gradient:
Two electron gradient done
Exchange-correlation gradient    ... done

------------------
CARTESIAN GRADIENT
------------------

   1   C   :    0.000130926    0.000072096   -0.000052420
   2   N   :   -0.000028105   -0.000128467    0.000001086
   3   C   :    0.000062931    0.000291972   -0.000057701
   4   C   :    0.000115014   -0.000335291   -0.000041555
   5   C   :   -0.000099100   -0.000164166    0.000143934
   6   O   :    0.000059395    0.000190790   -0.000142642
   7   H   :   -0.000022544    0.000033088   -0.000016411
   8   H   :   -0.000165307    0.000006336    0.000046649
   9   H   :    0.000066664   -0.000115268    0.000040193
  10   H   :   -0.000062357    0.000055123    0.000012779
  11   H   :    0.000088985    0.000006287    0.000008735
  12   H   :    0.000090190   -0.000118340   -0.000012140
  13   H   :   -0.000159690    0.000046506    0.000040370
  14   H   :    0.000050444    0.000024496    0.000006230
  15   H   :   -0.000163426    0.000013057   -0.000037350
  16   H   :    0.000035982    0.000121782    0.000060244

Norm of the cartesian gradient     ...    0.000740767
RMS gradient                       ...    0.000106920
MAX gradient                       ...    0.000335291

-------
TIMINGS
-------

Total SCF gradient time            ...       21.098 sec

One electron gradient       ....       0.096 sec  (  0.5%)
Prescreening matrices       ....       0.345 sec  (  1.6%)
Two electron gradient       ....      16.911 sec  ( 80.2%)
XC gradient                 ....       3.078 sec  ( 14.6%)
           ************************************************************
           *              Shut down parallel processing               *
           ************************************************************
------------------------------------------------------------------------------
                         ORCA GEOMETRY RELAXATION STEP
------------------------------------------------------------------------------

Reading the OPT-File                    .... done
Getting information on internals        .... done
Copying old internal coords+grads       .... done
Making the new internal coordinates     .... (new redundants).... done
Validating the new internal coordinates .... (new redundants).... done
Calculating the B-matrix                .... done
Calculating the G,G- and P matrices     .... done
Transforming gradient to internals      .... done
Projecting the internal gradient        .... done
Number of atoms                         ....  16
Number of internal coordinates          ....  86
Current Energy                          ....  -287.900054724 Eh
Current gradient norm                   ....     0.000740767 Eh/bohr
Maximum allowed component of the step   ....  0.300
Current trust radius                    ....  0.300
Evaluating the initial hessian          ....  (Almloef) done
Projecting the Hessian                  .... done
Forming the augmented Hessian           .... done
Diagonalizing the augmented Hessian     .... done
Last element of RFO vector              ....  0.999985081
Lowest eigenvalues of augmented Hessian:
 -0.000001364  0.012849332  0.013570301  0.013747448  0.040001722
Length of the computed step             ....  0.005462532
The final length of the internal step   ....  0.005462532
Converting the step to cartesian space:
 Initial RMS(Int)=    0.0005890400
Transforming coordinates:
 Iter   0:  RMS(Cart)=    0.0013770694 RMS(Int)=    0.0005890114
 Iter   1:  RMS(Cart)=    0.0000008811 RMS(Int)=    0.0000005803
 Iter   2:  RMS(Cart)=    0.0000000010 RMS(Int)=    0.0000000005
done
Storing new coordinates                 .... done

                                .--------------------.
          ----------------------|Geometry convergence|---------------------
          Item                value                 Tolerance   Converged
          -----------------------------------------------------------------
          RMS gradient        0.00006091            0.00003000      NO
          MAX gradient        0.00017531            0.00010000      NO
          RMS step            0.00058904            0.00060000      YES
          MAX step            0.00186891            0.00100000      NO
          ....................................................
          Max(Bonds)      0.0002      Max(Angles)    0.03
          Max(Dihed)        0.11      Max(Improp)    0.00
          -----------------------------------------------------------------

The optimization has not yet converged - more geometry cycles are needed


    ---------------------------------------------------------------------------
                         Redundant Internal Coordinates
                            (Angstroem and degrees)

        Definition                    Value    dE/dq     Step     New-Value
    ----------------------------------------------------------------------------
     1. B(N   1,C   0)                1.4899 -0.000014  0.0000    1.4900   
     2. B(C   2,N   1)                1.4994 -0.000067  0.0001    1.4995   
     3. B(C   3,C   2)                1.5020 -0.000098  0.0001    1.5022   
     4. B(C   4,C   3)                1.4674  0.000175 -0.0002    1.4672   
     5. B(O   5,C   4)                1.4142 -0.000078  0.0001    1.4144   
     6. B(O   5,C   3)                1.4019 -0.000088  0.0001    1.4020   
     7. B(H   6,C   0)                1.0885  0.000027 -0.0000    1.0885   
     8. B(H   7,C   0)                1.0883  0.000166 -0.0002    1.0881   
     9. B(H   8,C   0)                1.0883  0.000133 -0.0002    1.0881   
    10. B(H   9,N   1)                1.0226  0.000077 -0.0001    1.0225   
    11. B(H  10,N   1)                1.0225  0.000086 -0.0001    1.0224   
    12. B(H  11,C   2)                1.0920  0.000147 -0.0002    1.0918   
    13. B(H  12,C   2)                1.0908  0.000153 -0.0002    1.0906   
    14. B(H  13,C   3)                1.0908  0.000054 -0.0001    1.0907   
    15. B(H  14,C   4)                1.0885  0.000167 -0.0002    1.0883   
    16. B(H  15,C   4)                1.0860  0.000140 -0.0002    1.0858   
    17. A(H   6,C   0,H   8)          110.27  0.000036   -0.01    110.25   
    18. A(N   1,C   0,H   8)          108.59 -0.000028    0.00    108.59   
    19. A(N   1,C   0,H   7)          108.55 -0.000060    0.01    108.57   
    20. A(N   1,C   0,H   6)          109.10  0.000006   -0.00    109.09   
    21. A(H   7,C   0,H   8)          110.05  0.000034   -0.00    110.05   
    22. A(H   6,C   0,H   7)          110.25  0.000011    0.00    110.25   
    23. A(C   2,N   1,H   9)          108.53  0.000012    0.00    108.53   
    24. A(C   0,N   1,C   2)          114.23 -0.000048    0.01    114.24   
    25. A(H   9,N   1,H  10)          105.77  0.000004   -0.01    105.76   
    26. A(C   2,N   1,H  10)          109.05 -0.000005    0.00    109.05   
    27. A(C   0,N   1,H  10)          109.25  0.000030   -0.01    109.25   
    28. A(C   0,N   1,H   9)          109.67  0.000011   -0.00    109.67   
    29. A(H  11,C   2,H  12)          108.84  0.000047   -0.01    108.83   
    30. A(C   3,C   2,H  12)          110.41 -0.000078    0.02    110.43   
    31. A(N   1,C   2,H  12)          107.59 -0.000013   -0.00    107.59   
    32. A(C   3,C   2,H  11)          111.81 -0.000017    0.00    111.81   
    33. A(N   1,C   2,H  11)          106.91 -0.000071    0.01    106.92   
    34. A(N   1,C   2,C   3)          111.12  0.000133   -0.02    111.10   
    35. A(C   2,C   3,C   4)          120.76 -0.000068    0.03    120.79   
    36. A(O   5,C   3,H  13)          114.94  0.000000    0.01    114.95   
    37. A(C   4,C   3,H  13)          119.02  0.000032   -0.01    119.00   
    38. A(C   2,C   3,H  13)          116.09  0.000037   -0.01    116.07   
    39. A(C   4,C   3,O   5)           59.01 -0.000055    0.01     59.02   
    40. A(C   2,C   3,O   5)          113.42  0.000017   -0.01    113.41   
    41. A(O   5,C   4,H  15)          115.46  0.000008    0.00    115.46   
    42. A(C   3,C   4,H  15)          118.94  0.000016   -0.00    118.94   
    43. A(O   5,C   4,H  14)          115.11  0.000032   -0.00    115.11   
    44. A(C   3,C   4,H  14)          120.00  0.000011   -0.00    119.99   
    45. A(C   3,C   4,O   5)           58.19 -0.000060    0.01     58.19   
    46. A(H  14,C   4,H  15)          115.98 -0.000018    0.00    115.98   
    47. A(C   3,O   5,C   4)           62.81  0.000115   -0.02     62.79   
    48. D(H   9,N   1,C   0,H   8)    178.25  0.000030   -0.03    178.22   
    49. D(H  10,N   1,C   0,H   8)     62.75  0.000003   -0.02     62.73   
    50. D(H  10,N   1,C   0,H   7)   -177.62 -0.000008   -0.01   -177.63   
    51. D(C   2,N   1,C   0,H   6)   -179.89 -0.000011   -0.01   -179.90   
    52. D(C   2,N   1,C   0,H   8)    -59.68  0.000020   -0.02    -59.70   
    53. D(H   9,N   1,C   0,H   7)    -62.12  0.000019   -0.02    -62.15   
    54. D(C   2,N   1,C   0,H   7)     59.95  0.000009   -0.02     59.93   
    55. D(H   9,N   1,C   0,H   6)     58.04 -0.000000   -0.01     58.03   
    56. D(H  10,N   1,C   0,H   6)    -57.46 -0.000028   -0.00    -57.46   
    57. D(H  11,C   2,N   1,H   9)   -179.16 -0.000005   -0.00   -179.16   
    58. D(C   3,C   2,N   1,H  10)     57.87  0.000016   -0.01     57.85   
    59. D(C   3,C   2,N   1,H   9)    -56.90  0.000007   -0.00    -56.91   
    60. D(C   3,C   2,N   1,C   0)   -179.59  0.000018   -0.01   -179.60   
    61. D(H  11,C   2,N   1,H  10)    -64.39  0.000003   -0.01    -64.40   
    62. D(H  12,C   2,N   1,H  10)    178.84 -0.000008   -0.00    178.84   
    63. D(H  12,C   2,N   1,H   9)     64.07 -0.000017    0.00     64.08   
    64. D(H  12,C   2,N   1,C   0)    -58.62 -0.000007   -0.00    -58.62   
    65. D(H  11,C   2,N   1,C   0)     58.15  0.000005   -0.01     58.14   
    66. D(H  13,C   3,C   2,H  11)     54.43  0.000038   -0.10     54.33   
    67. D(H  13,C   3,C   2,N   1)    -64.94  0.000050   -0.11    -65.04   
    68. D(O   5,C   3,C   2,H  12)     39.39 -0.000031   -0.08     39.30   
    69. D(O   5,C   3,C   2,H  11)    -81.94 -0.000024   -0.08    -82.03   
    70. D(O   5,C   3,C   2,N   1)    158.69 -0.000012   -0.08    158.60   
    71. D(C   4,C   3,C   2,H  12)    -27.34  0.000041   -0.09    -27.43   
    72. D(C   4,C   3,C   2,H  11)   -148.67  0.000048   -0.09   -148.76   
    73. D(H  13,C   3,C   2,H  12)    175.76  0.000031   -0.10    175.66   
    74. D(C   4,C   3,C   2,N   1)     91.97  0.000060   -0.10     91.87   
    75. D(H  14,C   4,C   3,O   5)   -102.63 -0.000008   -0.00   -102.63   
    76. D(H  14,C   4,C   3,C   2)     -2.13  0.000020   -0.03     -2.16   
    77. D(O   5,C   4,C   3,H  13)   -103.26  0.000039   -0.02   -103.28   
    78. D(O   5,C   4,C   3,C   2)    100.50  0.000028   -0.03    100.47   
    79. D(H  15,C   4,C   3,H  13)      0.33  0.000016   -0.01      0.31   
    80. D(H  15,C   4,C   3,O   5)    103.59 -0.000023    0.01    103.59   
    81. D(H  15,C   4,C   3,C   2)   -155.92  0.000004   -0.02   -155.94   
    82. D(H  14,C   4,C   3,H  13)    154.11  0.000031   -0.02    154.09   
    83. D(C   3,O   5,C   4,H  15)   -109.59  0.000002    0.00   -109.59   
    84. D(C   3,O   5,C   4,H  14)    111.04 -0.000019    0.00    111.04   
    85. D(C   4,O   5,C   3,H  13)    110.16  0.000023   -0.02    110.14   
    86. D(C   4,O   5,C   3,C   2)   -112.95  0.000101   -0.05   -113.00   
    ----------------------------------------------------------------------------

         *************************************************************
         *                GEOMETRY OPTIMIZATION CYCLE   2            *
         *************************************************************
---------------------------------
CARTESIAN COORDINATES (ANGSTROEM)
---------------------------------
  C     -0.313441   -0.846775   -2.665755
  N      0.175103   -0.000027   -1.541338
  C      0.021555   -0.626065   -0.187478
  C      0.525930    0.288986    0.891765
  C     -0.379384    1.227071    1.564796
  O     -0.001320    0.000198    2.158297
  H     -0.161165   -0.315740   -3.603616
  H     -1.372088   -1.047064   -2.514018
  H      0.246366   -1.779809   -2.665997
  H     -0.320132    0.894497   -1.543756
  H      1.160058    0.227472   -1.694044
  H      0.571113   -1.569214   -0.209328
  H     -1.037917   -0.839407   -0.041263
  H      1.595046    0.504488    0.876679
  H     -1.422069    1.290579    1.259679
  H      0.035767    2.117049    2.027928

----------------------------
CARTESIAN COORDINATES (A.U.)
----------------------------
  NO LB      ZA    FRAG    MASS        X           Y           Z
   0 C     6.0000    0    12.011         -0.592317605856661         -1.600173477238051         -5.037547533225982
   1 N     7.0000    0    14.007          0.330897051999251         -0.000051550476561         -2.912706925599816
   2 C     6.0000    0    12.011          0.040733205241240         -1.183090855749085         -0.354282632366894
   3 C     6.0000    0    12.011          0.993864269883495          0.546103611168899          1.685191224728882
   4 C     6.0000    0    12.011         -0.716931846594659          2.318827307389671          2.957035451348486
   5 O     8.0000    0    15.999         -0.002494811991554          0.000373573512499          4.078590655434603
   6 H     1.0000    0     1.008         -0.304557489778946         -0.596661633801688         -6.809846715360544
   7 H     1.0000    0     1.008         -2.592871210914157         -1.978664442836942         -4.750805863736759
   8 H     1.0000    0     1.008          0.465564560087796         -3.363351826692193         -5.038003951635471
   9 H     1.0000    0     1.008         -0.604962093240024          1.690353612065306         -2.917276959304518
  10 H     1.0000    0     1.008          2.192192376487934          0.429860050955853         -3.201278811057464
  11 H     1.0000    0     1.008          1.079247785595928         -2.965383978138270         -0.395572819792143
  12 H     1.0000    0     1.008         -1.961378920989369         -1.586248411315655         -0.077976025769765
  13 H     1.0000    0     1.008          3.014199611172165          0.953343388844443          1.656682339585140
  14 H     1.0000    0     1.008         -2.687321883002082          2.438840888708567          2.380448393173982
  15 H     1.0000    0     1.008          0.067588932419098          4.000642789860794          3.832228793746917

--------------------------------
INTERNAL COORDINATES (ANGSTROEM)
--------------------------------
 C      0   0   0   0.000000     0.000     0.000
 N      1   0   0   1.489957     0.000     0.000
 C      2   1   0   1.499479   114.238     0.000
 C      3   2   1   1.502157   111.099   180.396
 C      4   3   2   1.467163   120.789    91.870
 O      4   3   2   1.401961   113.410   158.604
 H      1   2   3   1.088471   109.093   180.102
 H      1   2   3   1.088060   108.566    59.930
 H      1   2   3   1.088088   108.590   300.296
 H      2   1   3   1.022466   109.669   237.924
 H      2   1   3   1.022356   109.247   122.437
 H      3   2   1   1.091797   106.921    58.140
 H      3   2   1   1.090585   107.590   301.379
 H      4   3   2   1.090723   116.074   294.956
 H      5   4   3   1.088266   119.994   357.840
 H      5   4   3   1.085773   118.936   204.062

---------------------------
INTERNAL COORDINATES (A.U.)
---------------------------
 C      0   0   0   0.000000     0.000     0.000
 N      1   0   0   2.815611     0.000     0.000
 C      2   1   0   2.833604   114.238     0.000
 C      3   2   1   2.838666   111.099   180.396
 C      4   3   2   2.772537   120.789    91.870
 O      4   3   2   2.649323   113.410   158.604
 H      1   2   3   2.056912   109.093   180.102
 H      1   2   3   2.056135   108.566    59.930
 H      1   2   3   2.056189   108.590   300.296
 H      2   1   3   1.932181   109.669   237.924
 H      2   1   3   1.931973   109.247   122.437
 H      3   2   1   2.063198   106.921    58.140
 H      3   2   1   2.060906   107.590   301.379
 H      4   3   2   2.061168   116.074   294.956
 H      5   4   3   2.056524   119.994   357.840
 H      5   4   3   2.051814   118.936   204.062



           ************************************************************
           *        Program running with 8 parallel MPI-processes     *
           *              working on a common directory               *
           ************************************************************
           ************************************************************
           *              Shut down parallel processing               *
           ************************************************************


           ************************************************************
           *        Program running with 8 parallel MPI-processes     *
           *              working on a common directory               *
           ************************************************************

Diagonalization of the overlap matrix:
Smallest eigenvalue                        ... 1.679e-04
Time for diagonalization                   ...    0.018 sec
Threshold for overlap eigenvalues          ... 1.000e-08
Number of eigenvalues below threshold      ... 0
Time for construction of square roots      ...    0.011 sec
Total time needed                          ...    0.029 sec

-------------------
DFT GRID GENERATION
-------------------

General Integration Accuracy     IntAcc      ...  4.340
Radial Grid Type                 RadialGrid  ... Gauss-Chebyshev
Angular Grid (max. acc.)         AngularGrid ... Lebedev-194
Angular grid pruning method      GridPruning ... 3 (G Style)
Weight generation scheme         WeightScheme... Becke
Basis function cutoff            BFCut       ...    1.0000e-11
Integration weight cutoff        WCut        ...    1.0000e-14
Grids for H and He will be reduced by one unit

# of grid points (after initial pruning)     ...  35088 (   0.0 sec)
# of grid points (after weights+screening)   ...  32470 (   0.0 sec)
nearest neighbour list constructed           ...    0.0 sec
Grid point re-assignment to atoms done       ...    0.0 sec
Grid point division into batches done        ...    0.1 sec
Reduced shell lists constructed in    0.1 sec

Total number of grid points                  ...    32470
Total number of batches                      ...      514
Average number of points per batch           ...       63
Average number of grid points per atom       ...     2029
Average number of shells per batch           ...    84.26 (79.49%)
Average number of basis functions per batch  ...   197.80 (80.41%)
Average number of large shells per batch     ...    70.58 (83.76%)
Average number of large basis fcns per batch ...   165.00 (83.42%)
Maximum spatial batch extension              ...   2.48,  2.35,  2.37 au
Average spatial batch extension              ...   0.14,  0.15,  0.14 au

Time for grid setup =    0.205 sec

--------------
SCF ITERATIONS
--------------
ITER       Energy         Delta-E        Max-DP      RMS-DP      [F,P]     Damp
               ***  Starting incremental Fock matrix formation  ***
                      *** Initiating the SOSCF procedure ***
                      *** Re-Reading the Fockian *** 
                      *** Removing any level shift *** 
ITER      Energy       Delta-E        Grad      Rot      Max-DP    RMS-DP
  0   -287.90025113 -287.9002511312  0.000099  0.000099  0.000180  0.000007
               *** Restarting incremental Fock matrix formation ***
  1   -287.90025303  -0.0000018950  0.000030  0.000061  0.000158  0.000003
  2   -287.90025320  -0.0000001777  0.000016  0.000035  0.000055  0.000001
  3   -287.90025320   0.0000000089  0.000027  0.000022  0.000034  0.000001
                  ***Gradient check signals convergence***
              ***Rediagonalizing the Fockian in SOSCF/NRSCF***

               *****************************************************
               *                     SUCCESS                       *
               *           SCF CONVERGED AFTER   4 CYCLES          *
               *****************************************************

Setting up the final grid:

General Integration Accuracy     IntAcc      ...  5.010
Radial Grid Type                 RadialGrid  ... Gauss-Chebyshev
Angular Grid (max. acc.)         AngularGrid ... Lebedev-434
Angular grid pruning method      GridPruning ... 3 (G Style)
Weight generation scheme         WeightScheme... Becke
Basis function cutoff            BFCut       ...    1.0000e-11
Integration weight cutoff        WCut        ...    1.0000e-14
Grids for H and He will be reduced by one unit

# of grid points (after initial pruning)     ... 131144 (   0.0 sec)
# of grid points (after weights+screening)   ... 119937 (   0.1 sec)
nearest neighbour list constructed           ...    0.0 sec
Grid point re-assignment to atoms done       ...    0.0 sec
Grid point division into batches done        ...    0.9 sec
Reduced shell lists constructed in    1.1 sec

Total number of grid points                  ...   119937
Total number of batches                      ...     1882
Average number of points per batch           ...       63
Average number of grid points per atom       ...     7496
Average number of shells per batch           ...    84.15 (79.38%)
Average number of basis functions per batch  ...   198.11 (80.53%)
Average number of large shells per batch     ...    69.85 (83.01%)
Average number of large basis fcns per batch ...   163.82 (82.69%)
Maximum spatial batch extension              ...   1.95,  1.87,  2.47 au
Average spatial batch extension              ...   0.09,  0.10,  0.09 au

Final grid set up in    1.3 sec
Final integration                            ... done (   0.7 sec)
Change in XC energy                          ...     0.000197543
Integrated number of electrons               ...    48.000011639
Previous integrated no of electrons          ...    47.998844293
Total Energy       :         -287.90005567 Eh           -7834.15880 eV
  Last Energy change         ...   -1.8391e-08  Tolerance :   1.0000e-08
  Last MAX-Density change    ...    1.0489e-05  Tolerance :   1.0000e-07
             **** THE GBW FILE WAS UPDATED (1057_+.gbw) ****
             **** DENSITY FILE WAS UPDATED (1057_+.scfp.tmp) ****
             **** ENERGY FILE WAS UPDATED (1057_+.en.tmp) ****
Total SCF time: 0 days 0 hours 0 min 20 sec 
           ************************************************************
           *              Shut down parallel processing               *
           ************************************************************

-------------------------   --------------------
FINAL SINGLE POINT ENERGY      -287.900055670275
-------------------------   --------------------



           ************************************************************
           *        Program running with 8 parallel MPI-processes     *
           *              working on a common directory               *
           ************************************************************
------------------------------------------------------------------------------
                         ORCA SCF GRADIENT CALCULATION
------------------------------------------------------------------------------

Gradient of the Kohn-Sham DFT energy:
Kohn-Sham wavefunction type      ... RKS
Hartree-Fock exchange scaling    ...    0.250
Number of operators              ...    1
Number of atoms                  ...   16
Basis set dimensions             ...  246
Integral neglect threshold       ... 2.5e-11
Integral primitive cutoff        ... 2.5e-12

Nuclear repulsion gradient       ... done
One Electron Gradient            ... done
Pre-screening matrix             ... done
Starting the two electron gradient:
Two electron gradient done
Exchange-correlation gradient    ... done

------------------
CARTESIAN GRADIENT
------------------

   1   C   :    0.000028661   -0.000028644   -0.000035958
   2   N   :    0.000019938   -0.000010562    0.000012208
   3   C   :   -0.000009054    0.000037288   -0.000017999
   4   C   :    0.000084407   -0.000125599   -0.000013626
   5   C   :   -0.000072608   -0.000045087    0.000114928
   6   O   :    0.000025622    0.000085477   -0.000105861
   7   H   :   -0.000017223    0.000008816    0.000004568
   8   H   :   -0.000008403    0.000015595    0.000009130
   9   H   :   -0.000005697   -0.000002819    0.000024412
  10   H   :   -0.000010507   -0.000003647    0.000001314
  11   H   :   -0.000000794    0.000000014    0.000011928
  12   H   :   -0.000000148   -0.000015302    0.000002439
  13   H   :   -0.000010330    0.000037262    0.000004937
  14   H   :   -0.000005393    0.000030953   -0.000002981
  15   H   :   -0.000002658    0.000003652   -0.000010575
  16   H   :   -0.000015812    0.000012604    0.000001136

Norm of the cartesian gradient     ...    0.000270468
RMS gradient                       ...    0.000039039
MAX gradient                       ...    0.000125599

-------
TIMINGS
-------

Total SCF gradient time            ...       22.136 sec

One electron gradient       ....       0.201 sec  (  0.9%)
Prescreening matrices       ....       0.393 sec  (  1.8%)
Two electron gradient       ....      17.132 sec  ( 77.4%)
XC gradient                 ....       3.279 sec  ( 14.8%)
           ************************************************************
           *              Shut down parallel processing               *
           ************************************************************
------------------------------------------------------------------------------
                         ORCA GEOMETRY RELAXATION STEP
------------------------------------------------------------------------------

Reading the OPT-File                    .... done
Getting information on internals        .... done
Copying old internal coords+grads       .... done
Making the new internal coordinates     .... (new redundants).... done
Validating the new internal coordinates .... (new redundants).... done
Calculating the B-matrix                .... done
Calculating the G,G- and P matrices     .... done
Transforming gradient to internals      .... done
Projecting the internal gradient        .... done
Number of atoms                         ....  16
Number of internal coordinates          ....  86
Current Energy                          ....  -287.900055670 Eh
Current gradient norm                   ....     0.000270468 Eh/bohr
Maximum allowed component of the step   ....  0.300
Current trust radius                    ....  0.300
Updating the Hessian (BFGS)             .... done
Forming the augmented Hessian           .... done
Diagonalizing the augmented Hessian     .... done
Last element of RFO vector              ....  0.999968498
Lowest eigenvalues of augmented Hessian:
 -0.000000690  0.008672578  0.012855796  0.013743185  0.039962811
Length of the computed step             ....  0.007937656
The final length of the internal step   ....  0.007937656
Converting the step to cartesian space:
 Initial RMS(Int)=    0.0008559395
Transforming coordinates:
 Iter   0:  RMS(Cart)=    0.0019176881 RMS(Int)=    0.0008559694
 Iter   1:  RMS(Cart)=    0.0000016252 RMS(Int)=    0.0000011337
 Iter   2:  RMS(Cart)=    0.0000000028 RMS(Int)=    0.0000000012
done
Storing new coordinates                 .... done

                                .--------------------.
          ----------------------|Geometry convergence|---------------------
          Item                value                 Tolerance   Converged
          -----------------------------------------------------------------
          Energy change      -0.00000095            0.00000100      YES
          RMS gradient        0.00002137            0.00003000      YES
          MAX gradient        0.00007433            0.00010000      YES
          RMS step            0.00085594            0.00060000      NO
          MAX step            0.00268945            0.00100000      NO
          ....................................................
          Max(Bonds)      0.0002      Max(Angles)    0.03
          Max(Dihed)        0.15      Max(Improp)    0.00
          -----------------------------------------------------------------

       The energies and gradients are converged
       and the convergence on bond distances, angles, dihedrals and impropers
       is acceptable.
       Convergence will therefore be signaled now


                    ***********************HURRAY********************
                    ***        THE OPTIMIZATION HAS CONVERGED     ***
                    *************************************************


    ---------------------------------------------------------------------------
                         Redundant Internal Coordinates

                          --- Optimized Parameters ---  
                            (Angstroem and degrees)

        Definition                    OldVal   dE/dq     Step     FinalVal
    ----------------------------------------------------------------------------
     1. B(N   1,C   0)                1.4900  0.000003 -0.0000    1.4900   
     2. B(C   2,N   1)                1.4995 -0.000035  0.0001    1.4996   
     3. B(C   3,C   2)                1.5022 -0.000030  0.0001    1.5023   
     4. B(C   4,C   3)                1.4672  0.000074 -0.0002    1.4669   
     5. B(O   5,C   4)                1.4144 -0.000045  0.0002    1.4145   
     6. B(O   5,C   3)                1.4020 -0.000065  0.0001    1.4021   
     7. B(H   6,C   0)                1.0885 -0.000002 -0.0000    1.0885   
     8. B(H   7,C   0)                1.0881  0.000007 -0.0001    1.0880   
     9. B(H   8,C   0)                1.0881 -0.000000 -0.0000    1.0880   
    10. B(H   9,N   1)                1.0225  0.000001 -0.0000    1.0224   
    11. B(H  10,N   1)                1.0224 -0.000002 -0.0000    1.0223   
    12. B(H  11,C   2)                1.0918  0.000012 -0.0001    1.0917   
    13. B(H  12,C   2)                1.0906  0.000005 -0.0001    1.0905   
    14. B(H  13,C   3)                1.0907  0.000000 -0.0000    1.0907   
    15. B(H  14,C   4)                1.0883  0.000005 -0.0001    1.0882   
    16. B(H  15,C   4)                1.0858  0.000006 -0.0001    1.0857   
    17. A(H   6,C   0,H   8)          110.25  0.000020   -0.02    110.24   
    18. A(N   1,C   0,H   8)          108.59 -0.000015    0.00    108.59   
    19. A(N   1,C   0,H   7)          108.57 -0.000026    0.01    108.58   
    20. A(N   1,C   0,H   6)          109.09  0.000006   -0.00    109.09   
    21. A(H   7,C   0,H   8)          110.05  0.000013   -0.00    110.04   
    22. A(H   6,C   0,H   7)          110.25  0.000001    0.00    110.25   
    23. A(C   2,N   1,H   9)          108.53  0.000014   -0.00    108.53   
    24. A(C   0,N   1,C   2)          114.24 -0.000032    0.01    114.25   
    25. A(H   9,N   1,H  10)          105.76 -0.000002   -0.01    105.75   
    26. A(C   2,N   1,H  10)          109.05 -0.000003    0.00    109.06   
    27. A(C   0,N   1,H  10)          109.25  0.000021   -0.01    109.24   
    28. A(C   0,N   1,H   9)          109.67  0.000003   -0.00    109.67   
    29. A(H  11,C   2,H  12)          108.83  0.000015   -0.01    108.82   
    30. A(C   3,C   2,H  12)          110.43 -0.000033    0.02    110.45   
    31. A(N   1,C   2,H  12)          107.59  0.000001   -0.00    107.59   
    32. A(C   3,C   2,H  11)          111.81  0.000001   -0.00    111.81   
    33. A(N   1,C   2,H  11)          106.92 -0.000026    0.01    106.93   
    34. A(N   1,C   2,C   3)          111.10  0.000043   -0.02    111.08   
    35. A(C   2,C   3,C   4)          120.79 -0.000038    0.03    120.82   
    36. A(O   5,C   3,H  13)          114.95  0.000002    0.00    114.95   
    37. A(C   4,C   3,H  13)          119.00  0.000009   -0.01    118.99   
    38. A(C   2,C   3,H  13)          116.07  0.000032   -0.02    116.06   
    39. A(C   4,C   3,O   5)           59.02 -0.000023    0.01     59.03   
    40. A(C   2,C   3,O   5)          113.41 -0.000008   -0.00    113.41   
    41. A(O   5,C   4,H  15)          115.46  0.000015   -0.00    115.45   
    42. A(C   3,C   4,H  15)          118.94  0.000016   -0.01    118.93   
    43. A(O   5,C   4,H  14)          115.11  0.000014   -0.01    115.11   
    44. A(C   3,C   4,H  14)          119.99 -0.000003    0.01    120.00   
    45. A(C   3,C   4,O   5)           58.19 -0.000035    0.01     58.20   
    46. A(H  14,C   4,H  15)          115.98 -0.000011    0.00    115.99   
    47. A(C   3,O   5,C   4)           62.79  0.000058   -0.02     62.77   
    48. D(H   9,N   1,C   0,H   8)    178.22  0.000016   -0.04    178.18   
    49. D(H  10,N   1,C   0,H   8)     62.73  0.000005   -0.03     62.70   
    50. D(H  10,N   1,C   0,H   7)   -177.63 -0.000003   -0.02   -177.66   
    51. D(C   2,N   1,C   0,H   6)   -179.90 -0.000003   -0.02   -179.92   
    52. D(C   2,N   1,C   0,H   8)    -59.70  0.000015   -0.04    -59.74   
    53. D(H   9,N   1,C   0,H   7)    -62.15  0.000009   -0.03    -62.18   
    54. D(C   2,N   1,C   0,H   7)     59.93  0.000007   -0.03     59.90   
    55. D(H   9,N   1,C   0,H   6)     58.03 -0.000002   -0.02     58.00   
    56. D(H  10,N   1,C   0,H   6)    -57.46 -0.000014   -0.01    -57.47   
    57. D(H  11,C   2,N   1,H   9)   -179.16 -0.000004   -0.01   -179.17   
    58. D(C   3,C   2,N   1,H  10)     57.85  0.000010   -0.02     57.83   
    59. D(C   3,C   2,N   1,H   9)    -56.91  0.000006   -0.01    -56.92   
    60. D(C   3,C   2,N   1,C   0)   -179.60  0.000013   -0.02   -179.62   
    61. D(H  11,C   2,N   1,H  10)    -64.40 -0.000000   -0.02    -64.42   
    62. D(H  12,C   2,N   1,H  10)    178.84 -0.000004   -0.01    178.83   
    63. D(H  12,C   2,N   1,H   9)     64.08 -0.000008   -0.00     64.07   
    64. D(H  12,C   2,N   1,C   0)    -58.62 -0.000002   -0.01    -58.63   
    65. D(H  11,C   2,N   1,C   0)     58.14  0.000003   -0.01     58.13   
    66. D(H  13,C   3,C   2,H  11)     54.33  0.000025   -0.15     54.17   
    67. D(H  13,C   3,C   2,N   1)    -65.04  0.000029   -0.15    -65.20   
    68. D(O   5,C   3,C   2,H  12)     39.30 -0.000009   -0.13     39.17   
    69. D(O   5,C   3,C   2,H  11)    -82.03 -0.000006   -0.13    -82.16   
    70. D(O   5,C   3,C   2,N   1)    158.60 -0.000002   -0.13    158.47   
    71. D(C   4,C   3,C   2,H  12)    -27.43  0.000030   -0.15    -27.58   
    72. D(C   4,C   3,C   2,H  11)   -148.76  0.000033   -0.15   -148.91   
    73. D(H  13,C   3,C   2,H  12)    175.66  0.000022   -0.15    175.50   
    74. D(C   4,C   3,C   2,N   1)     91.87  0.000037   -0.15     91.72   
    75. D(H  14,C   4,C   3,O   5)   -102.63 -0.000003    0.01   -102.62   
    76. D(H  14,C   4,C   3,C   2)     -2.16 -0.000005   -0.01     -2.17   
    77. D(O   5,C   4,C   3,H  13)   -103.28  0.000011   -0.01   -103.29   
    78. D(O   5,C   4,C   3,C   2)    100.47 -0.000002   -0.01    100.45   
    79. D(H  15,C   4,C   3,H  13)      0.31  0.000008   -0.01      0.31   
    80. D(H  15,C   4,C   3,O   5)    103.59 -0.000004    0.00    103.60   
    81. D(H  15,C   4,C   3,C   2)   -155.94 -0.000005   -0.01   -155.95   
    82. D(H  14,C   4,C   3,H  13)    154.09  0.000008   -0.00    154.09   
    83. D(C   3,O   5,C   4,H  15)   -109.59 -0.000002    0.00   -109.59   
    84. D(C   3,O   5,C   4,H  14)    111.04 -0.000019    0.01    111.05   
    85. D(C   4,O   5,C   3,H  13)    110.14  0.000003   -0.01    110.14   
    86. D(C   4,O   5,C   3,C   2)   -113.00  0.000047   -0.04   -113.04   
    ----------------------------------------------------------------------------
                 *******************************************************
                 *** FINAL ENERGY EVALUATION AT THE STATIONARY POINT ***
                 ***               (AFTER    2 CYCLES)               ***
                 *******************************************************


           ************************************************************
           *        Program running with 8 parallel MPI-processes     *
           *              working on a common directory               *
           ************************************************************
           ************************************************************
           *              Shut down parallel processing               *
           ************************************************************


           ************************************************************
           *        Program running with 8 parallel MPI-processes     *
           *              working on a common directory               *
           ************************************************************
------------
SCF SETTINGS
------------
Hamiltonian:
 Density Functional     Method          .... DFT(GTOs)
 Exchange Functional    Exchange        .... PBE
   PBE kappa parameter  XKappa          ....  0.804000
 Correlation Functional Correlation     .... PBE
 LDA part of GGA corr.  LDAOpt          .... PW91-LDA
 Gradients option       PostSCFGGA      .... off
 Hybrid DFT is turned on
   Fraction HF Exchange ScalHFX         ....  0.250000
   Scaling of DF-GGA-X  ScalDFX         ....  0.750000
   Scaling of DF-GGA-C  ScalDFC         ....  1.000000
   Scaling of DF-LDA-C  ScalLDAC        ....  1.000000
   Perturbative correction              ....  0.000000
   NL short-range parameter             ....  6.900000


General Settings:
 Integral files         IntName         .... 1057_+
 Hartree-Fock type      HFTyp           .... RHF
 Total Charge           Charge          ....    1
 Multiplicity           Mult            ....    1
 Number of Electrons    NEL             ....   48
 Basis Dimension        Dim             ....  246
 Nuclear Repulsion      ENuc            ....    253.9717099846 Eh

Convergence Acceleration:
 DIIS                   CNVDIIS         .... on
   Start iteration      DIISMaxIt       ....    12
   Startup error        DIISStart       ....  0.200000
   # of expansion vecs  DIISMaxEq       ....     5
   Bias factor          DIISBfac        ....   1.050
   Max. coefficient     DIISMaxC        ....  10.000
 Newton-Raphson         CNVNR           .... off
 SOSCF                  CNVSOSCF        .... on
   Start iteration      SOSCFMaxIt      ....   150
   Startup grad/error   SOSCFStart      ....  0.003300
 Level Shifting         CNVShift        .... on
   Level shift para.    LevelShift      ....    0.2500
   Turn off err/grad.   ShiftErr        ....    0.0010
 Zerner damping         CNVZerner       .... off
 Static damping         CNVDamp         .... on
   Fraction old density DampFac         ....    0.7000
   Max. Damping (<1)    DampMax         ....    0.9800
   Min. Damping (>=0)   DampMin         ....    0.0000
   Turn off err/grad.   DampErr         ....    0.1000
 Fernandez-Rico         CNVRico         .... off

SCF Procedure:
 Maximum # iterations   MaxIter         ....   125
 SCF integral mode      SCFMode         .... Direct
   Integral package                     .... LIBINT
 Reset frequeny         DirectResetFreq ....    20
 Integral Threshold     Thresh          ....  2.500e-11 Eh
 Primitive CutOff       TCut            ....  2.500e-12 Eh

Convergence Tolerance:
 Convergence Check Mode ConvCheckMode   .... Total+1el-Energy
 Energy Change          TolE            ....  1.000e-08 Eh
 1-El. energy change                    ....  1.000e-05 Eh
 Orbital Gradient       TolG            ....  1.000e-05
 Orbital Rotation angle TolX            ....  1.000e-05
 DIIS Error             TolErr          ....  5.000e-07


Diagonalization of the overlap matrix:
Smallest eigenvalue                        ... 1.679e-04
Time for diagonalization                   ...    0.017 sec
Threshold for overlap eigenvalues          ... 1.000e-08
Number of eigenvalues below threshold      ... 0
Time for construction of square roots      ...    0.011 sec
Total time needed                          ...    0.029 sec

-------------------
DFT GRID GENERATION
-------------------

General Integration Accuracy     IntAcc      ...  4.340
Radial Grid Type                 RadialGrid  ... Gauss-Chebyshev
Angular Grid (max. acc.)         AngularGrid ... Lebedev-194
Angular grid pruning method      GridPruning ... 3 (G Style)
Weight generation scheme         WeightScheme... Becke
Basis function cutoff            BFCut       ...    1.0000e-11
Integration weight cutoff        WCut        ...    1.0000e-14
Grids for H and He will be reduced by one unit

# of grid points (after initial pruning)     ...  35088 (   0.0 sec)
# of grid points (after weights+screening)   ...  32468 (   0.0 sec)
nearest neighbour list constructed           ...    0.0 sec
Grid point re-assignment to atoms done       ...    0.0 sec
Grid point division into batches done        ...    0.1 sec
Reduced shell lists constructed in    0.1 sec

Total number of grid points                  ...    32468
Total number of batches                      ...      515
Average number of points per batch           ...       63
Average number of grid points per atom       ...     2029
Average number of shells per batch           ...    84.23 (79.46%)
Average number of basis functions per batch  ...   197.71 (80.37%)
Average number of large shells per batch     ...    70.58 (83.79%)
Average number of large basis fcns per batch ...   165.06 (83.49%)
Maximum spatial batch extension              ...   2.23,  1.93,  2.13 au
Average spatial batch extension              ...   0.14,  0.14,  0.14 au

Time for grid setup =    0.196 sec

--------------
SCF ITERATIONS
--------------
ITER       Energy         Delta-E        Max-DP      RMS-DP      [F,P]     Damp
               ***  Starting incremental Fock matrix formation  ***
                      *** Initiating the SOSCF procedure ***
                      *** Re-Reading the Fockian *** 
                      *** Removing any level shift *** 
ITER      Energy       Delta-E        Grad      Rot      Max-DP    RMS-DP
  0   -287.90025001 -287.9002500119  0.000142  0.000142  0.000277  0.000008
               *** Restarting incremental Fock matrix formation ***
  1   -287.90025368  -0.0000036701  0.000043  0.000084  0.000133  0.000004
  2   -287.90025404  -0.0000003544  0.000013  0.000030  0.000047  0.000001
  3   -287.90025403   0.0000000036  0.000023  0.000018  0.000041  0.000001
  4   -287.90025405  -0.0000000125  0.000003  0.000002  0.000007  0.000000
                  ***Gradient check signals convergence***
              ***Rediagonalizing the Fockian in SOSCF/NRSCF***

               *****************************************************
               *                     SUCCESS                       *
               *           SCF CONVERGED AFTER   5 CYCLES          *
               *****************************************************

Setting up the final grid:

General Integration Accuracy     IntAcc      ...  5.010
Radial Grid Type                 RadialGrid  ... Gauss-Chebyshev
Angular Grid (max. acc.)         AngularGrid ... Lebedev-434
Angular grid pruning method      GridPruning ... 3 (G Style)
Weight generation scheme         WeightScheme... Becke
Basis function cutoff            BFCut       ...    1.0000e-11
Integration weight cutoff        WCut        ...    1.0000e-14
Grids for H and He will be reduced by one unit

# of grid points (after initial pruning)     ... 131144 (   0.0 sec)
# of grid points (after weights+screening)   ... 119927 (   0.1 sec)
nearest neighbour list constructed           ...    0.0 sec
Grid point re-assignment to atoms done       ...    0.1 sec
Grid point division into batches done        ...    0.9 sec
Reduced shell lists constructed in    1.2 sec

Total number of grid points                  ...   119927
Total number of batches                      ...     1882
Average number of points per batch           ...       63
Average number of grid points per atom       ...     7495
Average number of shells per batch           ...    84.11 (79.34%)
Average number of basis functions per batch  ...   197.99 (80.48%)
Average number of large shells per batch     ...    69.82 (83.01%)
Average number of large basis fcns per batch ...   163.69 (82.68%)
Maximum spatial batch extension              ...   1.69,  1.87,  2.47 au
Average spatial batch extension              ...   0.09,  0.10,  0.09 au

Final grid set up in    1.3 sec
Final integration                            ... done (   0.7 sec)
Change in XC energy                          ...     0.000197938
Integrated number of electrons               ...    48.000010987
Previous integrated no of electrons          ...    47.998847076
Total Energy       :         -287.90005611 Eh           -7834.15881 eV
  Last Energy change         ...   -1.0004e-11  Tolerance :   1.0000e-08
  Last MAX-Density change    ...    2.4327e-06  Tolerance :   1.0000e-07
             **** THE GBW FILE WAS UPDATED (1057_+.gbw) ****
             **** DENSITY FILE WAS UPDATED (1057_+.scfp.tmp) ****
             **** ENERGY FILE WAS UPDATED (1057_+.en.tmp) ****
Total SCF time: 0 days 0 hours 0 min 22 sec 
           ************************************************************
           *              Shut down parallel processing               *
           ************************************************************

-------------------------   --------------------
FINAL SINGLE POINT ENERGY      -287.900056107755
-------------------------   --------------------

                                *** OPTIMIZATION RUN DONE ***

                            ***************************************
                            *     ORCA property calculations      *
                            ***************************************

                                    ---------------------
                                    Active property flags
                                    ---------------------




           ************************************************************
           *        Program running with 8 parallel MPI-processes     *
           *              working on a common directory               *
           ************************************************************

-------------------------------------------------------------------------------
                               ORCA SCF HESSIAN
-------------------------------------------------------------------------------

Hessian of the Kohn-Sham DFT energy:
Kohn-Sham wavefunction type                      ... RKS
Hartree-Fock exchange scaling                    ...    0.250
Number of operators                              ...    1
Number of atoms                                  ...   16
Basis set dimensions                             ...  246
Integral neglect threshold                       ... 2.5e-11
Integral primitive cutoff                        ... 2.5e-12

Setting up DFT Hessian calculations              ... 
Electron density on the grid                     ... found on disk
Electron density on the final grid               ... found on disk
Building xc-kernel on the grid                   ... done   (      0.0 sec)
Building xc-kernel on the final grid             ... done   (      0.0 sec)
                                                     done   (      0.2 sec)

Nuclear repulsion Hessian                        ... done   (      0.0 sec)

----------------------------------------------
Forming right-hand sides of CP-SCF equations     ...
----------------------------------------------
One electron integral derivatives                ... done   (      0.2 sec)
Transforming the overlap derivative matrices     ... done   (      0.1 sec)
Making the Q(x) pseudodensities                  ... done   (      0.1 sec)
Adding the E*S(x)*S(y) terms to the Hessian      ... done   (      0.0 sec)
Calculating energy weighted overlap derivatives  ... done   (      0.0 sec)
Two electron integral derivatives                ... done   (     26.0 sec)
Exchange-correlation integral derivatives        ... done   (     39.2 sec)
tr(F(y)Q(x)) contribution to the Hessian         ... done   (      0.0 sec)
Response fock operator R(S(x))                   ... done   (     90.4 sec)
XC Response fock operator R(S(x))                ... done   (     16.3 sec)
tr(F(y)S(x)) contribution to the Hessian         ... done   (      0.0 sec)
Transforming and finalizing RHSs                 ... done   (      0.1 sec)

----------------------------------------------
Solving the CP-SCF equations                     ...
----------------------------------------------
     CP-SCF ITERATION   0: 
     CP-SCF ITERATION   1:      0.000377581
     CP-SCF ITERATION   2:      0.000031324
     CP-SCF ITERATION   3:      0.000003213
     CP-SCF ITERATION   4:      0.000000377
     CP-SCF ITERATION   5:      0.000000022
     CP-SCF ITERATION   6:      0.000000006

                                                 ... done   (    682.5 sec)
Forming perturbed density Hessian contributions  ... done   (      0.0 sec)
Making the perturbed densities                   ... done   (      0.0 sec)
2nd integral derivative contribs                 ... done   (    156.3 sec)
Exchange-correlation Hessian                     ... done   (     22.9 sec)
Dipol derivatives                                ... done   (      2.0 sec)

Total SCF Hessian time: 0 days 0 hours 17 min 17 sec 

Writing the Hessian file to the disk             ... done

           ************************************************************
           *              Shut down parallel processing               *
           ************************************************************

-----------------------
VIBRATIONAL FREQUENCIES
-----------------------

   0:         0.00 cm**-1
   1:         0.00 cm**-1
   2:         0.00 cm**-1
   3:         0.00 cm**-1
   4:         0.00 cm**-1
   5:         0.00 cm**-1
   6:        75.90 cm**-1
   7:        88.03 cm**-1
   8:       175.81 cm**-1
   9:       231.39 cm**-1
  10:       332.64 cm**-1
  11:       425.79 cm**-1
  12:       442.65 cm**-1
  13:       797.02 cm**-1
  14:       847.68 cm**-1
  15:       902.98 cm**-1
  16:       922.75 cm**-1
  17:       944.91 cm**-1
  18:      1004.22 cm**-1
  19:      1030.78 cm**-1
  20:      1061.91 cm**-1
  21:      1117.01 cm**-1
  22:      1164.38 cm**-1
  23:      1178.53 cm**-1
  24:      1184.96 cm**-1
  25:      1199.76 cm**-1
  26:      1298.31 cm**-1
  27:      1306.66 cm**-1
  28:      1357.96 cm**-1
  29:      1397.32 cm**-1
  30:      1426.43 cm**-1
  31:      1454.48 cm**-1
  32:      1464.70 cm**-1
  33:      1485.69 cm**-1
  34:      1493.21 cm**-1
  35:      1498.42 cm**-1
  36:      1530.88 cm**-1
  37:      1657.41 cm**-1
  38:      3093.43 cm**-1
  39:      3096.31 cm**-1
  40:      3110.61 cm**-1
  41:      3115.60 cm**-1
  42:      3160.58 cm**-1
  43:      3195.37 cm**-1
  44:      3198.30 cm**-1
  45:      3212.53 cm**-1
  46:      3438.42 cm**-1
  47:      3486.20 cm**-1


------------
NORMAL MODES
------------

These modes are the cartesian displacements weighted by the diagonal matrix
M(i,i)=1/sqrt(m[i]) where m[i] is the mass of the displaced atom
Thus, these vectors are normalized but *not* orthogonal

                  0          1          2          3          4          5    
      0       0.000000   0.000000   0.000000   0.000000   0.000000   0.000000
      1       0.000000   0.000000   0.000000   0.000000   0.000000   0.000000
      2       0.000000   0.000000   0.000000   0.000000   0.000000   0.000000
      3       0.000000   0.000000   0.000000   0.000000   0.000000   0.000000
      4       0.000000   0.000000   0.000000   0.000000   0.000000   0.000000
      5       0.000000   0.000000   0.000000   0.000000   0.000000   0.000000
      6       0.000000   0.000000   0.000000   0.000000   0.000000   0.000000
      7       0.000000   0.000000   0.000000   0.000000   0.000000   0.000000
      8       0.000000   0.000000   0.000000   0.000000   0.000000   0.000000
      9       0.000000   0.000000   0.000000   0.000000   0.000000   0.000000
     10       0.000000   0.000000   0.000000   0.000000   0.000000   0.000000
     11       0.000000   0.000000   0.000000   0.000000   0.000000   0.000000
     12       0.000000   0.000000   0.000000   0.000000   0.000000   0.000000
     13       0.000000   0.000000   0.000000   0.000000   0.000000   0.000000
     14       0.000000   0.000000   0.000000   0.000000   0.000000   0.000000
     15       0.000000   0.000000   0.000000   0.000000   0.000000   0.000000
     16       0.000000   0.000000   0.000000   0.000000   0.000000   0.000000
     17       0.000000   0.000000   0.000000   0.000000   0.000000   0.000000
     18       0.000000   0.000000   0.000000   0.000000   0.000000   0.000000
     19       0.000000   0.000000   0.000000   0.000000   0.000000   0.000000
     20       0.000000   0.000000   0.000000   0.000000   0.000000   0.000000
     21       0.000000   0.000000   0.000000   0.000000   0.000000   0.000000
     22       0.000000   0.000000   0.000000   0.000000   0.000000   0.000000
     23       0.000000   0.000000   0.000000   0.000000   0.000000   0.000000
     24       0.000000   0.000000   0.000000   0.000000   0.000000   0.000000
     25       0.000000   0.000000   0.000000   0.000000   0.000000   0.000000
     26       0.000000   0.000000   0.000000   0.000000   0.000000   0.000000
     27       0.000000   0.000000   0.000000   0.000000   0.000000   0.000000
[...]
      8       0.062597   0.037622   0.074412  -0.014960  -0.000471  -0.000238
      9      -0.025964   0.037785   0.026474   0.008220  -0.002828  -0.006572
     10       0.016260  -0.081589  -0.064684  -0.010659   0.003622   0.006431
     11       0.018186  -0.102062  -0.092207  -0.020659   0.003134   0.016047
     12       0.006225  -0.009494  -0.004600  -0.007427  -0.001732   0.008401
     13      -0.004946   0.026799   0.021211   0.011438   0.002596  -0.013859
     14      -0.007372   0.011319   0.006926   0.001437   0.000255  -0.001190
     15      -0.002177   0.009288   0.008005  -0.000248  -0.000817   0.000790
     16       0.004613  -0.022413  -0.019815  -0.003827   0.000702   0.003467
     17      -0.005802   0.025460   0.019873   0.007574  -0.000272  -0.006236
     18      -0.021977  -0.183520   0.135103  -0.173625  -0.594605  -0.152699
     19      -0.120025  -0.310703   0.340429  -0.252535   0.289378  -0.240838
     20      -0.010310  -0.190434   0.191159  -0.155069   0.068048  -0.149599
     21      -0.058835   0.022554  -0.027292  -0.080625  -0.064315  -0.116124
     22       0.055980  -0.243470   0.257749   0.301395   0.023622   0.516608
     23      -0.199699  -0.340483   0.331956  -0.170512  -0.500560  -0.072416
     24       0.062525  -0.250004   0.260600   0.247434  -0.048199   0.446585
     25       0.025195  -0.120890   0.128031   0.149374  -0.042517   0.258511
     26      -0.233449  -0.278901   0.357710  -0.140166   0.515621  -0.086397
     27       0.072747  -0.005014   0.014886  -0.009733  -0.029000  -0.007065
     28       0.029555  -0.000238  -0.004593  -0.004400  -0.043407  -0.027878
     29       0.538370  -0.023605   0.080490  -0.101913  -0.082510  -0.086384
     30       0.074450  -0.001543   0.002007  -0.011298   0.031942  -0.029064
     31       0.044545  -0.003653   0.005495  -0.001004   0.047608  -0.012912
     32       0.590169   0.013344   0.118708  -0.078695   0.111518  -0.096583
     33      -0.077580   0.143351  -0.073422  -0.467053   0.012582   0.329312
     34      -0.012411   0.110482  -0.007436  -0.246994   0.001169   0.176262
     35      -0.316665   0.009301  -0.103504   0.186857  -0.029512  -0.120603
     36       0.011495  -0.054560  -0.009350   0.144659   0.002542  -0.097641
     37       0.007484   0.085348  -0.126714  -0.536248   0.025093   0.377147
     38      -0.216741  -0.213533  -0.290160   0.069061   0.022999  -0.031296
     39      -0.004343  -0.025303  -0.023916   0.002524   0.001632  -0.003800
     40      -0.094621   0.239222   0.185087   0.018456  -0.015661  -0.012346
     41      -0.135578   0.339003   0.285328   0.035759  -0.021997  -0.021525
     42       0.007806  -0.013275  -0.009671  -0.005824   0.000083   0.004826
     43      -0.108783   0.307442   0.258800  -0.009801  -0.036361   0.051929
     44      -0.019432   0.035654   0.036739  -0.005511  -0.009467   0.018174
     45       0.077923  -0.284836  -0.250627   0.012604   0.032365  -0.048731
     46      -0.063834   0.184759   0.155446  -0.000396  -0.017653   0.020489
     47       0.031141  -0.014966  -0.004452   0.007924   0.006328  -0.014896
                 36         37         38         39         40         41    
      0       0.002286   0.001402   0.013852   0.004711   0.000005   0.000228
      1       0.001402   0.003865   0.024004   0.007722   0.000007  -0.000292
      2       0.003960  -0.002767   0.033931   0.012380   0.000003   0.000030
      3       0.002748   0.027307  -0.000297  -0.000605  -0.000265   0.000892
      4       0.003863   0.062205  -0.000409  -0.001770   0.000294   0.000101
      5      -0.010700  -0.006779  -0.000455  -0.000017   0.000066   0.000280
      6       0.013499   0.003145  -0.005714   0.016390   0.003398  -0.015287
      7      -0.002227   0.006433  -0.021343   0.062649  -0.002115   0.006978
      8      -0.020839   0.002535   0.001267  -0.005016  -0.000102   0.000087
      9      -0.051590   0.000229   0.001355  -0.003532  -0.015807   0.081025
     10       0.054465  -0.002523   0.000295  -0.001056  -0.005422   0.015095
     11       0.102674  -0.003053   0.000235  -0.000609  -0.003816   0.000443
     12       0.082545  -0.002287   0.000026  -0.000137  -0.045010  -0.015861
     13      -0.130656   0.002466   0.000037  -0.000104   0.041850   0.009925
     14      -0.021739   0.000927   0.000168  -0.000489   0.004072  -0.001162
     15       0.005167   0.000542   0.000015  -0.000036  -0.000687  -0.000004
     16       0.020706   0.000104   0.000012   0.000007   0.000804  -0.001020
     17      -0.041913   0.000495  -0.000121   0.000411   0.001146  -0.000372
     18      -0.015411  -0.003630   0.080008   0.028094  -0.000042   0.000336
     19       0.019022  -0.006169   0.277698   0.098392   0.000216  -0.000639
     20       0.012158  -0.012843  -0.477741  -0.174190  -0.000282   0.001939
     21       0.003941   0.000515  -0.523828  -0.179164  -0.000018  -0.001894
     22      -0.038460   0.016382  -0.096925  -0.033401   0.000133  -0.000575
     23      -0.032395   0.005045   0.080130   0.025931   0.000151  -0.000197
     24      -0.036546   0.012890   0.282093   0.095287   0.000152  -0.001983
     25      -0.022219   0.011149  -0.461525  -0.156926  -0.000251   0.003147
     26       0.006833   0.003827   0.004160  -0.000430   0.000073  -0.000511
     27      -0.010422  -0.618085  -0.000613  -0.009363   0.001079  -0.001288
     28      -0.003776  -0.326286   0.002539   0.015918  -0.003578   0.003031
     29       0.029523   0.109020  -0.001600   0.004007   0.000648   0.001069
     30       0.015152   0.178367   0.003607   0.013977   0.001515  -0.007665
     31      -0.014455  -0.678718   0.001554   0.002748  -0.000128  -0.000712
     32       0.034854   0.030844  -0.001599   0.000406  -0.001333   0.004737
     33      -0.113789   0.003237  -0.130335   0.382899  -0.017532   0.070053
     34      -0.078530   0.007273   0.213808  -0.629169   0.030747  -0.117327
     35      -0.015253  -0.008415   0.006648  -0.015405   0.000125   0.000516
     36       0.041853   0.001439   0.195428  -0.570986  -0.019784   0.104634
     37      -0.068926   0.008219   0.034379  -0.101234  -0.002314   0.020411
     38       0.104322  -0.010467  -0.025329   0.077918   0.004388  -0.017882
     39      -0.019155   0.000193  -0.015046   0.037959   0.216565  -0.934395
     40      -0.127458  -0.006855  -0.002566   0.006207   0.040953  -0.187495
     41      -0.183409   0.001104  -0.000201  -0.000249  -0.000830  -0.002043
     42       0.037634  -0.001820  -0.001448   0.004410   0.752950   0.200663
     43       0.615598  -0.007969  -0.000022   0.000157  -0.030303  -0.006988
     44       0.240957  -0.007604  -0.000634   0.002040   0.221439   0.066062
     45      -0.580385   0.009183   0.000599  -0.001835  -0.236174  -0.037816
     46       0.254567  -0.005098   0.000889  -0.002902  -0.461270  -0.075856
     47      -0.146938   0.003948   0.000191  -0.000968  -0.245343  -0.044507
                 42         43         44         45         46         47    
      0       0.001221   0.021066   0.088161  -0.000156  -0.000864   0.002494
      1      -0.000396   0.070444  -0.035986   0.000290  -0.001890  -0.000988
      2      -0.000264  -0.061558  -0.011041  -0.000123   0.000512  -0.000264
      3       0.002693  -0.000547  -0.003014  -0.000048  -0.022090   0.074486
      4      -0.000948  -0.001622   0.001231   0.000032  -0.054178  -0.032290
      5      -0.000415   0.000593   0.000323  -0.000053   0.006966  -0.007606
      6      -0.088977   0.000342   0.000831  -0.001895  -0.000539   0.002434
      7       0.030665   0.000541  -0.000299   0.001089  -0.001673  -0.001136
      8       0.009662   0.000325  -0.000068   0.000173   0.001239  -0.000233
      9      -0.015579  -0.000056  -0.000256  -0.004715   0.000489  -0.000640
     10      -0.002284  -0.000078   0.000016  -0.000598   0.000412   0.000094
     11       0.000191   0.000149   0.000033   0.000345   0.000166   0.000051
     12       0.002605   0.000155  -0.000138  -0.072682  -0.000152  -0.000102
     13       0.000701   0.000130  -0.000191  -0.054519   0.000121   0.000034
     14       0.000809   0.000094  -0.000121  -0.043770   0.000054   0.000000
     15       0.000201   0.000016   0.000007   0.000932  -0.000049   0.000043
     16       0.000240   0.000017   0.000000   0.000652  -0.000103  -0.000031
     17       0.000180   0.000010   0.000008   0.000406  -0.000084   0.000020
     18       0.001078  -0.114424   0.008876  -0.000304   0.001730  -0.001307
     19      -0.001337  -0.395568  -0.024194  -0.000995   0.006112   0.000218
     20       0.001425   0.685344   0.029615   0.001537  -0.010790   0.000395
     21      -0.008006  -0.377442  -0.701175   0.000881   0.016404  -0.022426
     22      -0.000882  -0.058084  -0.136695   0.000324   0.005713  -0.005343
     23       0.003005   0.049033   0.109392  -0.000031   0.000429   0.000813
     24      -0.004268   0.243154  -0.349297   0.001607  -0.006332  -0.010257
     25       0.005995  -0.378630   0.586201  -0.002670   0.016400   0.019471
     26      -0.001272  -0.005783  -0.008508  -0.000085   0.002955   0.002470
     27      -0.010227  -0.011868   0.013427  -0.000476  -0.369608  -0.337601
     28       0.014625   0.014592  -0.016600  -0.001258   0.614506   0.603752
     29       0.007513  -0.004530   0.006531   0.001311   0.000260  -0.003678
     30      -0.021058   0.016367   0.022088   0.000349   0.673154  -0.690067
     31      -0.002204   0.001173   0.001751  -0.000280   0.131549  -0.158274
     32      -0.006324  -0.006677  -0.010701  -0.000701  -0.103015   0.108203
     33       0.299035   0.003529  -0.003392   0.005284  -0.006407  -0.010668
     34      -0.518234  -0.005101   0.006611  -0.006658   0.013542   0.017055
     35      -0.015862   0.000943  -0.001164   0.000820  -0.003605  -0.002350
     36       0.753046  -0.006444  -0.008068   0.015137   0.012688  -0.019506
     37       0.152494  -0.000822  -0.002075   0.004473   0.004222  -0.003867
     38      -0.098102   0.001750   0.002448  -0.000507  -0.005278   0.005467
     39       0.172043   0.000285   0.001708   0.051146  -0.003292   0.003820
     40       0.035562  -0.000123   0.000175   0.003292  -0.000629  -0.000001
     41       0.003912  -0.000377  -0.000303   0.000525   0.000413  -0.000758
     42      -0.013651  -0.001278   0.000915   0.546168   0.002092   0.002431
     43      -0.000132   0.000121  -0.000059  -0.030122  -0.000051   0.000057
     44      -0.007179  -0.000340   0.000259   0.152825   0.000095  -0.000016
     45      -0.008340  -0.000801   0.000990   0.312756   0.000014  -0.000023
     46      -0.018360  -0.001738   0.002223   0.663424  -0.000760  -0.000112
     47      -0.008112  -0.001013   0.001239   0.355418  -0.000431   0.000140


-----------
IR SPECTRUM
-----------

 Mode    freq (cm**-1)   T**2         TX         TY         TZ
-------------------------------------------------------------------
   6:        75.90    2.016231  ( -1.253515   0.361643  -0.560486)
   7:        88.03    1.590504  ( -1.009187   0.592242   0.470420)
   8:       175.81    3.774402  ( -1.453193  -1.254468   0.298233)
   9:       231.39    1.217363  ( -0.869952   0.650315   0.194002)
  10:       332.64    1.689911  ( -0.116555   0.854763   0.972474)
  11:       425.79    6.574212  ( -0.334708  -0.551522  -2.481533)
  12:       442.65   12.901032  ( -0.141884  -0.451969  -3.560425)
  13:       797.02   14.940753  (  3.339626  -0.700881  -1.815604)
  14:       847.68   32.958750  ( -1.166543   3.433629  -4.450631)
  15:       902.98    0.899230  (  0.922633  -0.216313  -0.034458)
  16:       922.75   23.487850  ( -1.077384  -0.509043   4.697656)
  17:       944.91    2.946250  ( -1.391436   0.893278  -0.460663)
  18:      1004.22   11.531616  ( -0.924976  -3.045150   1.184524)
  19:      1030.78   24.153082  ( -0.194963  -1.383227  -4.711874)
  20:      1061.91    6.052135  (  0.606671  -1.193064   2.064143)
  21:      1117.01    3.721947  (  0.776819   1.381754   1.099661)
  22:      1164.38    5.204503  (  0.355494   0.738283  -2.129100)
  23:      1178.53    2.418339  (  0.094137  -0.731427   1.369121)
  24:      1184.96    3.428027  (  1.320333   0.100217   1.294103)
  25:      1199.76    0.695316  (  0.407617   0.079471  -0.723083)
  26:      1298.31   11.430795  (  1.041774  -3.035345   1.064040)
  27:      1306.66    0.858194  ( -0.850582  -0.233909   0.282825)
  28:      1357.96    5.193672  (  1.323128   0.355789   1.821103)
  29:      1397.32    0.556389  (  0.672830  -0.280990  -0.157272)
  30:      1426.43   64.344735  (  0.099650   0.913062   7.968759)
  31:      1454.48    2.456052  ( -0.555188   0.194128  -1.452629)
  32:      1464.70    2.192079  ( -0.252209   1.333569   0.591660)
  33:      1485.69   22.412999  ( -1.351495  -1.035707  -4.417439)
  34:      1493.21   23.721361  ( -4.386113   1.925395   0.881037)
  35:      1498.42   24.529024  (  1.540876   3.900970  -2.633849)
  36:      1530.88    5.258344  ( -1.498394  -0.769971   1.555733)
  37:      1657.41   45.771436  ( -2.460796  -6.258275   0.741557)
  38:      3093.43    0.167542  (  0.083221  -0.113025  -0.384502)
  39:      3096.31    1.007447  ( -0.071786   0.472536   0.882612)
  40:      3110.61    8.910114  ( -2.465638   1.297017  -1.071677)
  41:      3115.60    6.804678  (  1.769537   1.161380  -1.524668)
  42:      3160.58    0.384107  ( -0.256923   0.294460   0.481031)
  43:      3195.37    0.389916  ( -0.165431  -0.592824   0.105397)
  44:      3198.30    0.175603  ( -0.381044   0.159976   0.069395)
  45:      3212.53    2.886448  ( -1.384124  -0.742252  -0.647851)
  46:      3438.42   42.979494  (  2.727216   5.819161  -1.295821)
  47:      3486.20   73.168198  ( -7.806958   3.328029   1.069500)

The first frequency considered to be a vibration is 6
The total number of vibrations considered is 42


--------------------------
THERMOCHEMISTRY AT 298.15K
--------------------------

Temperature         ... 298.15 K
Pressure            ... 1.00 atm
Total Mass          ... 88.13 AMU

Throughout the following assumptions are being made:
  (1) The electronic state is orbitally nondegenerate
  (2) There are no thermally accessible electronically excited states
  (3) Hindered rotations indicated by low frequency modes) are not
      treated as such but are treated as vibrations and this may
      case some error
  (4) All equations used are the standard statistical mechanics
      equations for an ideal gas
  (5) All vibrations are strinctly harmonic


------------
INNER ENERGY
------------

The inner energy is: U= E(el) + E(ZPE) + E(vib) + E(rot) + E(trans)
    E(el)   - is the total energy from the electronic structure calculation
              = E(kin-el) + E(nuc-el) + E(el-el) + E(nuc-nuc)
    E(ZPE)  - the the zero temperature vibrational energy from the frequency calculation
    E(vib)  - the the finite temperature correction to E(ZPE) due to population
              of excietd vibrational states
    E(rot)  - is the rotational thermal energy
    E(trans)- is the translational thermal energy

Summary of contributions to the inner energy U:
Electronic energy                ...   -287.90005611 Eh
Zero point energy                ...      0.14718768 Eh      92.36 kcal/mol
Thermal vibrational correction   ...      0.00415447 Eh       2.61 kcal/mol
Thermal rotational correction    ...      0.00141627 Eh       0.89 kcal/mol
Thermal translational correction ...      0.00141627 Eh       0.89 kcal/mol
-----------------------------------------------------------------------
Total thermal energy                   -287.74588141 Eh


Summary of corrections to the electronic energy:
(perhaps to be used in another calculation)
Total thermal correction                  0.00698701 Eh       4.38 kcal/mol
Non-thermal (ZPE) correction              0.14718768 Eh      92.36 kcal/mol
-----------------------------------------------------------------------
Total correction                          0.15417470 Eh      96.75 kcal/mol


--------
ENTHALPY
--------

The enthalpy is H = U + kB*T
                kB is Boltzmann's constant
Total free energy                 ...   -287.74588141 Eh 
Thermal Enthalpy correction       ...      0.00094421 Eh       0.59 kcal/mol
-----------------------------------------------------------------------
Total Enthalpy                    ...   -287.74493720 Eh


-------
ENTROPY
-------

The entropy contributions are T*S = T*(S(el)+S(vib)+S(rot)+S(trans)
     S(el)   - electronic entropy
     S(vib)  - vibrational entropy
     S(rot)  - rotational entropy
     S(trans)- translational entropy
The entropies will be listed as mutliplied by the temperature to get
units of energy

Electronic entropy                ...      0.00000000 Eh      0.00 kcal/mol
Vibrational entropy               ...      0.00775185 Eh      4.86 kcal/mol
Rotational entropy                ...      0.01168422 Eh      7.33 kcal/mol
Translational entropy             ...      0.01869229 Eh     11.73 kcal/mol
-----------------------------------------------------------------------
Final entropy term                ...      0.03812835 Eh     23.93 kcal/mol


CAUTION: The rotational entropy is not quite correctly treated here
         because it includes a symmetry number that is not yet correctly
         implemented in ORCA!
For a nonlinear molecule the correct rotational entropy is:
    S(rot) = R*(ln(qrot/sn)+1.5)
    R    = 8.31441 J/mol/K = 1.987191683e-3 kcal/mol/K
    qrot = 158512.1764885
    sn is the rotational symmetry number. We have assumed 3 here
       if it is different for your molecule then you should correct
       the printed rotational entropy by manually evaluating the equation
       as given above

For convenience we print out the resulting values for sn=1 - 12:
 sn= 1  qrot/sn=  158512.1765 T*S(rot)=     7.98 kcal/mol T*S(tot)=    24.58 kcal/mol
 sn= 2  qrot/sn=   79256.0882 T*S(rot)=     7.57 kcal/mol T*S(tot)=    24.17 kcal/mol
 sn= 3  qrot/sn=   52837.3922 T*S(rot)=     7.33 kcal/mol T*S(tot)=    23.93 kcal/mol
 sn= 4  qrot/sn=   39628.0441 T*S(rot)=     7.16 kcal/mol T*S(tot)=    23.76 kcal/mol
 sn= 5  qrot/sn=   31702.4353 T*S(rot)=     7.03 kcal/mol T*S(tot)=    23.62 kcal/mol
 sn= 6  qrot/sn=   26418.6961 T*S(rot)=     6.92 kcal/mol T*S(tot)=    23.52 kcal/mol
 sn= 7  qrot/sn=   22644.5966 T*S(rot)=     6.83 kcal/mol T*S(tot)=    23.42 kcal/mol
 sn= 8  qrot/sn=   19814.0221 T*S(rot)=     6.75 kcal/mol T*S(tot)=    23.34 kcal/mol
 sn= 9  qrot/sn=   17612.4641 T*S(rot)=     6.68 kcal/mol T*S(tot)=    23.27 kcal/mol
 sn=10  qrot/sn=   15851.2176 T*S(rot)=     6.62 kcal/mol T*S(tot)=    23.21 kcal/mol
 sn=11  qrot/sn=   14410.1979 T*S(rot)=     6.56 kcal/mol T*S(tot)=    23.16 kcal/mol
 sn=12  qrot/sn=   13209.3480 T*S(rot)=     6.51 kcal/mol T*S(tot)=    23.10 kcal/mol


-------------------
GIBBS FREE ENTHALPY
-------------------

The Gibbs free enthalpy is G = H - T*S

Total enthalpy                    ...   -287.74493720 Eh 
Total entropy correction          ...     -0.03812835 Eh    -23.93 kcal/mol
-----------------------------------------------------------------------
Final Gibbs free enthalpy         ...   -287.78306555 Eh

For completeness - the Gibbs free enthalpy minus the electronic energy
G-E(el)                           ...      0.11699055 Eh     73.41 kcal/mol


Timings for individual modules:

Sum of individual times         ...     1185.049 sec (=  19.751 min)
GTO integral calculation        ...        5.766 sec (=   0.096 min)   0.5 %
SCF iterations                  ...       94.675 sec (=   1.578 min)   8.0 %
SCF Gradient evaluation         ...       46.029 sec (=   0.767 min)   3.9 %
Geometry relaxation             ...        0.177 sec (=   0.003 min)   0.0 %
Analytical frequency calculation...     1038.402 sec (=  17.307 min)  87.6 %
                             ****ORCA TERMINATED NORMALLY****
TOTAL RUN TIME: 0 days 0 hours 19 minutes 46 seconds 802 msec
