
                                 *****************
                                 * O   R   C   A *
                                 *****************

           --- An Ab Initio, DFT and Semiempirical electronic structure package ---

                  #######################################################
                  #                        -***-                        #
                  #  Department of molecular theory and spectroscopy    #
                  #              Directorship: Frank Neese              #
                  # Max Planck Institute for Chemical Energy Conversion #
                  #                  D-45470 Muelheim/Ruhr              #
                  #                       Germany                       #
                  #                                                     #
                  #                  All rights reserved                #
                  #                        -***-                        #
                  #######################################################


                         Program Version 3.0.3 - RELEASE   -


 With contributions from (in alphabetic order):
   Ute Becker             : Parallelization
   Dmytro Bykov           : SCF Hessian
   Dmitry Ganyushin       : Spin-Orbit,Spin-Spin,Magnetic field MRCI
   Andreas Hansen         : Spin unrestricted coupled pair/coupled cluster methods
   Dimitrios Liakos       : Extrapolation schemes; parallel MDCI
   Robert Izsak           : Overlap fitted RIJCOSX, COSX-SCS-MP3
   Christian Kollmar      : KDIIS, OOCD, Brueckner-CCSD(T), CCSD density
   Simone Kossmann        : Meta GGA functionals, TD-DFT gradient, OOMP2, MP2 Hessian
   Taras Petrenko         : DFT Hessian,TD-DFT gradient, ASA and ECA modules, normal mode analysis, Resonance Raman, ABS, FL, XAS/XES, NRVS
   Christoph Reimann      : Effective Core Potentials
   Michael Roemelt        : Restricted open shell CIS
   Christoph Riplinger    : Improved optimizer, TS searches, QM/MM, DLPNO-CCSD
   Barbara Sandhoefer     : DKH picture change effects
   Igor Schapiro          : Molecular dynamics
   Kantharuban Sivalingam : CASSCF convergence, NEVPT2
   Boris Wezisla          : Elementary symmetry handling
   Frank Wennmohs         : Technical directorship


 We gratefully acknowledge several colleagues who have allowed us to
 interface, adapt or use parts of their codes:
   Stefan Grimme, W. Hujo, H. Kruse, T. Risthaus : VdW corrections, initial TS optimization,
                                                   DFT functionals, gCP
   Ed Valeev                                     : LibInt (2-el integral package), F12 methods
   Garnet Chan, S. Sharma, R. Olivares           : DMRG
   Ulf Ekstrom                                   : XCFun DFT Library
   Mihaly Kallay                                 : mrcc  (arbitrary order and MRCC methods)
   Andreas Klamt, Michael Diedenhofen            : otool_cosmo (COSMO solvation model)
   Frank Weinhold                                : gennbo (NPA and NBO analysis)
   Christopher J. Cramer and Donald G. Truhlar   : smd solvation model


 Your calculation uses the libint2 library for the computation of 2-el integrals
 For citations please refer to: http://libint.valeyev.net

 This ORCA versions uses:
   CBLAS   interface :  Fast vector & matrix operations
   LAPACKE interface :  Fast linear algebra routines
   SCALAPACK package :  Parallel linear algebra routines


Your calculation utilizes the basis: Ahlrichs-TZV
Cite in your paper:
H - Kr: A. Schaefer, H. Horn and R. Ahlrichs, J. Chem. Phys. 97, 2571 (1992).

The def2-TZV basis will be loaded
Cite in your paper:
 	F. Weigend, R. Ahlrichs, Phys. Chem. Chem. Phys. 2005, 7, 3297.

================================================================================
                                        WARNINGS
                       Please study these warnings very carefully!
================================================================================
Now building the actual basis set
WARNING: Geometry optimizations can change the point-group symmetry!

WARNING: Geometry Optimization
  ===> : Switching off AutoStart
         For restart on a previous wavefunction, please use MOREAD


INFO   : the flag for use of LIBINT has been found!

================================================================================
                                       INPUT FILE
================================================================================
NAME = 1075_+.inp
|  1> ! NORI PBE0 def2-TZVP UseSym TightOPT Freq TightSCF Grid3 FinalGrid5 XYZFile
|  2> % pal
|  3>     nprocs 8
|  4> end
|  5> %method
|  6>     SymThresh 5.0e-2
|  7> end
|  8> % geom 
|  9>     MaxIter 10
| 10> end 
| 11> % maxcore 2000
| 12> % output
| 13>     printlevel mini
| 14>     print[ P_Basis ] 0
| 15>     print[ P_SCFInfo ] 1
| 16>     print[ P_SCFIterInfo ] 1
| 17>     print[ P_OrbEn ] 0
| 18>     print[ P_Cartesian ] 0
| 19> end
| 20> % elprop
| 21>     Dipole false
| 22> end
| 23> *xyz 1 1
| 24>  C        2.6339903532    -1.2786784183     0.1547186094 
| 25>  O        2.5265108795     0.1383717158     0.1851874449 
| 26>  C        2.9480802319     0.7660583010    -0.9561583802 
| 27>  C        2.6053980357     2.2603437286    -0.9393228359 
| 28>  N        4.0378206417     2.6008486171    -1.3076517568 
| 29>  C        4.4475311268     1.1657547942    -1.0334955138 
| 30>  H        2.2182721486    -1.6414793331     1.0917435010 
| 31>  H        3.6787780982    -1.5982262662     0.0789781653 
| 32>  H        2.0622138933    -1.6933567553    -0.6817649378 
| 33>  H        2.6096214650     0.2534413995    -1.8652528086 
| 34>  H        1.8815234563     2.6532682675    -1.6487761532 
| 35>  H        2.3960807315     2.6109612775     0.0695636451 
| 36>  H        4.1456373291     2.8645073743    -2.2854409941 
| 37>  H        4.4896032656     3.3151281128    -0.7389592209 
| 38>  H        4.9402396754     1.1097646736    -0.0641296046 
| 39>  H        5.0795186683     0.7587525109    -1.8197191599 
| 40> *
| 41> 
| 42>                          ****END OF INPUT****
================================================================================

The point group is C1 - hence turning off symmetry
If this is a round-off problem, please increase the symmetry
        detection tolerance (%method SymThresh)


                       *****************************
                       * Geometry Optimization Run *
                       *****************************

Geometry optimization settings:
Update method            Update   .... BFGS
Choice of coordinates    CoordSys .... Redundant Internals
Initial Hessian          InHess   .... Almoef's Model

Convergence Tolerances:
Energy Change            TolE     ....  1.0000e-06 Eh
Max. Gradient            TolMAXG  ....  1.0000e-04 Eh/bohr
RMS Gradient             TolRMSG  ....  3.0000e-05 Eh/bohr
Max. Displacement        TolMAXD  ....  1.0000e-03 bohr
RMS Displacement         TolRMSD  ....  6.0000e-04 bohr

------------------------------------------------------------------------------
                        ORCA OPTIMIZATION COORDINATE SETUP
------------------------------------------------------------------------------

The optimization will be done in new redundant internal coordinates
Making redundant internal coordinates   ...  (new redundants) done
Evaluating the initial hessian          ...  (Almloef) done
Evaluating the coordinates              ...  done
Calculating the B-matrix                .... done
Calculating the G-matrix                .... done
Diagonalizing the G-matrix              .... done
The first mode is                       ....   47
The number of degrees of freedom        ....   42

    -----------------------------------------------------------------
                    Redundant Internal Coordinates


    -----------------------------------------------------------------
         Definition                    Initial Value    Approx d2E/dq
    -----------------------------------------------------------------
      1. B(O   1,C   0)                  1.4214         0.498545   
      2. B(C   2,O   1)                  1.3691         0.604298   
      3. B(C   3,C   2)                  1.5332         0.369253   
      4. B(N   4,C   3)                  1.5177         0.350043   
      5. B(C   5,N   4)                  1.5174         0.350436   
      6. B(C   5,C   2)                  1.5537         0.342382   
      7. B(H   6,C   0)                  1.0874         0.363542   
      8. B(H   7,C   0)                  1.0952         0.353307   
      9. B(H   8,C   0)                  1.0948         0.353803   
     10. B(H   9,C   2)                  1.0972         0.350738   
     11. B(H  10,C   3)                  1.0871         0.364005   
     12. B(H  11,C   3)                  1.0884         0.362233   
     13. B(H  12,N   4)                  1.0184         0.419504   
     14. B(H  13,N   4)                  1.0187         0.419124   
     15. B(H  14,C   5)                  1.0888         0.361641   
     16. B(H  15,C   5)                  1.0878         0.363085   
     17. A(O   1,C   0,H   6)          106.5725         0.338672   
     18. A(H   6,C   0,H   8)          109.4115         0.290468   
     19. A(H   7,C   0,H   8)          109.5650         0.289170   
     20. A(O   1,C   0,H   8)          110.7620         0.337142   
     21. A(H   6,C   0,H   7)          109.0841         0.290404   
     22. A(O   1,C   0,H   7)          111.3761         0.337063   
     23. A(C   0,O   1,C   2)          114.5762         0.410198   
     24. A(O   1,C   2,H   9)          112.4302         0.347675   
     25. A(C   3,C   2,C   5)           88.0244         0.357283   
     26. A(O   1,C   2,C   3)          111.6458         0.391587   
     27. A(C   5,C   2,H   9)          112.1266         0.318349   
     28. A(O   1,C   2,C   5)          117.1680         0.386457   
     29. A(C   3,C   2,H   9)          113.2982         0.322305   
     30. A(C   2,C   3,N   4)           90.2892         0.356411   
     31. A(H  10,C   3,H  11)          111.1281         0.291603   
     32. A(N   4,C   3,H  11)          109.5236         0.319279   
     33. A(C   2,C   3,H  11)          111.5392         0.324014   
     34. A(N   4,C   3,H  10)          112.8922         0.319533   
     35. A(C   2,C   3,H  10)          119.6011         0.324273   
     36. A(C   3,N   4,C   5)           89.9314         0.351090   
     37. A(C   5,N   4,H  13)          116.2656         0.324295   
     38. A(C   3,N   4,H  13)          116.1297         0.324235   
     39. A(C   5,N   4,H  12)          112.9372         0.324343   
     40. A(C   3,N   4,H  12)          113.0167         0.324283   
     41. A(H  12,N   4,H  13)          107.9090         0.300229   
     42. A(N   4,C   5,H  15)          112.3433         0.319459   
     43. A(C   2,C   5,H  15)          120.0282         0.320152   
     44. A(N   4,C   5,H  14)          109.3698         0.319252   
     45. A(C   2,C   5,N   4)           89.5252         0.351944   
     46. A(H  14,C   5,H  15)          111.1824         0.291412   
     47. A(C   2,C   5,H  14)          112.2815         0.319943   
     48. D(C   2,O   1,C   0,H   6)   -176.9801         0.019646   
     49. D(C   2,O   1,C   0,H   8)    -58.0558         0.019646   
     50. D(C   2,O   1,C   0,H   7)     64.1510         0.019646   
     51. D(C   5,C   2,O   1,C   0)    -89.4699         0.029456   
     52. D(H   9,C   2,O   1,C   0)     42.5869         0.029456   
     53. D(C   3,C   2,O   1,C   0)    171.2081         0.029456   
     54. D(N   4,C   3,C   2,O   1)    129.7176         0.010902   
     55. D(H  10,C   3,C   2,H   9)     14.6373         0.010902   
     56. D(H  11,C   3,C   2,H   9)    146.6978         0.010902   
     57. D(H  10,C   3,C   2,C   5)    127.9334         0.010902   
     58. D(N   4,C   3,C   2,C   5)     11.1728         0.010902   
     59. D(H  11,C   3,C   2,O   1)     18.5386         0.010902   
     60. D(N   4,C   3,C   2,H   9)   -102.1233         0.010902   
     61. D(H  11,C   3,C   2,C   5)   -100.0061         0.010902   
     62. D(H  10,C   3,C   2,O   1)   -113.5219         0.010902   
     63. D(H  13,N   4,C   3,H  11)    -17.8931         0.011295   
     64. D(H  13,N   4,C   3,C   2)   -130.9303         0.011295   
     65. D(H  12,N   4,C   3,H  10)    -18.9877         0.011295   
     66. D(H  12,N   4,C   3,C   2)    103.5822         0.011295   
     67. D(C   5,N   4,C   3,H  11)    101.6002         0.011295   
     68. D(C   5,N   4,C   3,H  10)   -134.0069         0.011295   
     69. D(H  13,N   4,C   3,H  10)    106.4998         0.011295   
     70. D(C   5,N   4,C   3,C   2)    -11.4370         0.011295   
     71. D(H  12,N   4,C   3,H  11)   -143.3806         0.011295   
     72. D(H  14,C   5,C   2,H   9)   -145.9740         0.009480   
     73. D(H  14,C   5,C   2,C   3)     99.6207         0.009480   
     74. D(H  14,C   5,C   2,O   1)    -13.7796         0.009480   
     75. D(N   4,C   5,C   2,H   9)    103.2300         0.009480   
     76. D(N   4,C   5,C   2,C   3)    -11.1754         0.009480   
     77. D(H  15,C   5,C   2,O   1)    119.6825         0.009480   
     78. D(N   4,C   5,C   2,O   1)   -124.5757         0.009480   
     79. D(H  15,C   5,N   4,H  13)   -106.8169         0.011319   
     80. D(H  15,C   5,N   4,H  12)     18.7170         0.011319   
     81. D(H  15,C   5,N   4,C   3)    133.8084         0.011319   
     82. D(H  14,C   5,N   4,H  13)     17.1425         0.011319   
     83. D(H  14,C   5,N   4,H  12)    142.6764         0.011319   
     84. D(H  14,C   5,N   4,C   3)   -102.2322         0.011319   
     85. D(C   2,C   5,N   4,H  13)    130.6586         0.011319   
     86. D(C   2,C   5,N   4,H  12)   -103.8075         0.011319   
     87. D(C   2,C   5,N   4,C   3)     11.2839         0.011319   
     88. D(H  15,C   5,C   2,H   9)    -12.5118         0.009480   
     89. D(H  15,C   5,C   2,C   3)   -126.9171         0.009480   
    -----------------------------------------------------------------

Number of atoms                         .... 16
Number of degrees of freedom            .... 89

         *************************************************************
         *                GEOMETRY OPTIMIZATION CYCLE   1            *
         *************************************************************


           ************************************************************
           *        Program running with 8 parallel MPI-processes     *
           *              working on a common directory               *
           ************************************************************
           ************************************************************
           *              Shut down parallel processing               *
           ************************************************************


           ************************************************************
           *        Program running with 8 parallel MPI-processes     *
           *              working on a common directory               *
           ************************************************************
------------
SCF SETTINGS
------------
Hamiltonian:
 Density Functional     Method          .... DFT(GTOs)
 Exchange Functional    Exchange        .... PBE
   PBE kappa parameter  XKappa          ....  0.804000
 Correlation Functional Correlation     .... PBE
 LDA part of GGA corr.  LDAOpt          .... PW91-LDA
 Gradients option       PostSCFGGA      .... off
 Hybrid DFT is turned on
   Fraction HF Exchange ScalHFX         ....  0.250000
   Scaling of DF-GGA-X  ScalDFX         ....  0.750000
   Scaling of DF-GGA-C  ScalDFC         ....  1.000000
   Scaling of DF-LDA-C  ScalLDAC        ....  1.000000
   Perturbative correction              ....  0.000000
   NL short-range parameter             ....  6.900000


General Settings:
 Integral files         IntName         .... 1075_+
 Hartree-Fock type      HFTyp           .... RHF
 Total Charge           Charge          ....    1
 Multiplicity           Mult            ....    1
 Number of Electrons    NEL             ....   48
 Basis Dimension        Dim             ....  246
 Nuclear Repulsion      ENuc            ....    263.9617430556 Eh

Convergence Acceleration:
 DIIS                   CNVDIIS         .... on
   Start iteration      DIISMaxIt       ....    12
   Startup error        DIISStart       ....  0.200000
   # of expansion vecs  DIISMaxEq       ....     5
   Bias factor          DIISBfac        ....   1.050
   Max. coefficient     DIISMaxC        ....  10.000
 Newton-Raphson         CNVNR           .... off
 SOSCF                  CNVSOSCF        .... on
   Start iteration      SOSCFMaxIt      ....   150
   Startup grad/error   SOSCFStart      ....  0.003300
 Level Shifting         CNVShift        .... on
   Level shift para.    LevelShift      ....    0.2500
   Turn off err/grad.   ShiftErr        ....    0.0010
 Zerner damping         CNVZerner       .... off
 Static damping         CNVDamp         .... on
   Fraction old density DampFac         ....    0.7000
   Max. Damping (<1)    DampMax         ....    0.9800
   Min. Damping (>=0)   DampMin         ....    0.0000
   Turn off err/grad.   DampErr         ....    0.1000
 Fernandez-Rico         CNVRico         .... off

SCF Procedure:
 Maximum # iterations   MaxIter         ....   125
 SCF integral mode      SCFMode         .... Direct
   Integral package                     .... LIBINT
 Reset frequeny         DirectResetFreq ....    20
 Integral Threshold     Thresh          ....  2.500e-11 Eh
 Primitive CutOff       TCut            ....  2.500e-12 Eh

Convergence Tolerance:
 Convergence Check Mode ConvCheckMode   .... Total+1el-Energy
 Energy Change          TolE            ....  1.000e-08 Eh
 1-El. energy change                    ....  1.000e-05 Eh
 Orbital Gradient       TolG            ....  1.000e-05
 Orbital Rotation angle TolX            ....  1.000e-05
 DIIS Error             TolErr          ....  5.000e-07


Diagonalization of the overlap matrix:
Smallest eigenvalue                        ... 1.076e-04
Time for diagonalization                   ...    0.018 sec
Threshold for overlap eigenvalues          ... 1.000e-08
Number of eigenvalues below threshold      ... 0
Time for construction of square roots      ...    0.011 sec
Total time needed                          ...    0.029 sec

-------------------
DFT GRID GENERATION
-------------------

General Integration Accuracy     IntAcc      ...  4.340
Radial Grid Type                 RadialGrid  ... Gauss-Chebyshev
Angular Grid (max. acc.)         AngularGrid ... Lebedev-194
Angular grid pruning method      GridPruning ... 3 (G Style)
Weight generation scheme         WeightScheme... Becke
Basis function cutoff            BFCut       ...    1.0000e-11
Integration weight cutoff        WCut        ...    1.0000e-14
Grids for H and He will be reduced by one unit

# of grid points (after initial pruning)     ...  35088 (   0.0 sec)
# of grid points (after weights+screening)   ...  32367 (   0.0 sec)
nearest neighbour list constructed           ...    0.0 sec
Grid point re-assignment to atoms done       ...    0.0 sec
Grid point division into batches done        ...    0.1 sec
Reduced shell lists constructed in    0.1 sec

Total number of grid points                  ...    32367
Total number of batches                      ...      515
Average number of points per batch           ...       62
Average number of grid points per atom       ...     2023
Average number of shells per batch           ...    82.73 (78.04%)
Average number of basis functions per batch  ...   199.21 (80.98%)
Average number of large shells per batch     ...    68.14 (82.36%)
Average number of large basis fcns per batch ...   163.98 (82.32%)
Maximum spatial batch extension              ...   6.00,  8.42,  6.46 au
Average spatial batch extension              ...   0.18,  0.20,  0.18 au

Time for grid setup =    0.190 sec

Loading Hartree-Fock densities                     ... done
Calculating cut-offs                               ... done
Setting up the integral package                    ... done
Initializing the effective Hamiltonian             ... done
Starting the Coulomb interaction                   ... done (   0.0 sec)
Reading the grid                                   ... done
Mapping shells                                     ... done
Starting the XC term evaluation                    ... done (   0.2 sec)
  promolecular density results
     # of electrons  =     48.995808519
     EX              =    -38.154641499
     EC              =     -1.623978700
     EX+EC           =    -39.778620199
Transforming the Hamiltonian                       ... done (   0.0 sec)
Diagonalizing the Hamiltonian                      ... done (   0.0 sec)
Back transforming the eigenvectors                 ... done (   0.0 sec)
Now organizing SCF variables                       ... done
--------------
SCF ITERATIONS
--------------
ITER       Energy         Delta-E        Max-DP      RMS-DP      [F,P]     Damp
               ***  Starting incremental Fock matrix formation  ***
  0   -287.8077924555   0.000000000000 0.03249899  0.00084999  0.1697675 0.7000
  1   -287.8510006882  -0.043208232656 0.02179642  0.00065732  0.0745956 0.7000
                               ***Turning on DIIS***
  2   -287.8703309892  -0.019330301011 0.03768984  0.00113269  0.0281933 0.0000
  3   -287.9014110193  -0.031080030178 0.02140307  0.00054358  0.0378063 0.0000
  4   -287.9070113025  -0.005600283163 0.00472704  0.00012266  0.0083458 0.0000
  5   -287.9072137164  -0.000202413933 0.00186896  0.00005039  0.0039782 0.0000
                      *** Initiating the SOSCF procedure ***
                           *** Shutting down DIIS ***
                      *** Re-Reading the Fockian *** 
                      *** Removing any level shift *** 
ITER      Energy       Delta-E        Grad      Rot      Max-DP    RMS-DP
  6   -287.90724071  -0.0000269909  0.000092  0.000092  0.001129  0.000026
               *** Restarting incremental Fock matrix formation ***
  7   -287.90724227  -0.0000015650  0.000068  0.000100  0.000113  0.000003
  8   -287.90724224   0.0000000290  0.000076  0.000048  0.000066  0.000002
  9   -287.90724238  -0.0000001324  0.000004  0.000007  0.000014  0.000000
 10   -287.90724238   0.0000000001  0.000005  0.000003  0.000005  0.000000
                  ***Gradient check signals convergence***
              ***Rediagonalizing the Fockian in SOSCF/NRSCF***

               *****************************************************
               *                     SUCCESS                       *
               *           SCF CONVERGED AFTER  11 CYCLES          *
               *****************************************************

Setting up the final grid:

General Integration Accuracy     IntAcc      ...  5.010
Radial Grid Type                 RadialGrid  ... Gauss-Chebyshev
Angular Grid (max. acc.)         AngularGrid ... Lebedev-434
Angular grid pruning method      GridPruning ... 3 (G Style)
Weight generation scheme         WeightScheme... Becke
Basis function cutoff            BFCut       ...    1.0000e-11
Integration weight cutoff        WCut        ...    1.0000e-14
Grids for H and He will be reduced by one unit

# of grid points (after initial pruning)     ... 131144 (   0.0 sec)
# of grid points (after weights+screening)   ... 119667 (   0.1 sec)
nearest neighbour list constructed           ...    0.0 sec
Grid point re-assignment to atoms done       ...    0.0 sec
Grid point division into batches done        ...    0.9 sec
Reduced shell lists constructed in    1.1 sec

Total number of grid points                  ...   119667
Total number of batches                      ...     1877
Average number of points per batch           ...       63
Average number of grid points per atom       ...     7479
Average number of shells per batch           ...    81.99 (77.35%)
Average number of basis functions per batch  ...   197.72 (80.37%)
Average number of large shells per batch     ...    67.05 (81.78%)
Average number of large basis fcns per batch ...   161.74 (81.80%)
Maximum spatial batch extension              ...   4.70,  6.19,  4.44 au
Average spatial batch extension              ...   0.12,  0.13,  0.12 au

Final grid set up in    1.3 sec
Final integration                            ... done (   1.2 sec)
Change in XC energy                          ...     0.000281429
Integrated number of electrons               ...    48.000005221
Previous integrated no of electrons          ...    48.000178206
Total Energy       :         -287.90696095 Eh           -7834.34670 eV
  Last Energy change         ...   -9.8544e-10  Tolerance :   1.0000e-08
  Last MAX-Density change    ...    1.6112e-06  Tolerance :   1.0000e-07
             **** THE GBW FILE WAS UPDATED (1075_+.gbw) ****
             **** DENSITY FILE WAS UPDATED (1075_+.scfp.tmp) ****
             **** ENERGY FILE WAS UPDATED (1075_+.en.tmp) ****
Total SCF time: 0 days 0 hours 0 min 50 sec 
           ************************************************************
           *              Shut down parallel processing               *
           ************************************************************

-------------------------   --------------------
FINAL SINGLE POINT ENERGY      -287.906960947579
-------------------------   --------------------



           ************************************************************
           *        Program running with 8 parallel MPI-processes     *
           *              working on a common directory               *
           ************************************************************
------------------------------------------------------------------------------
                         ORCA SCF GRADIENT CALCULATION
------------------------------------------------------------------------------

Gradient of the Kohn-Sham DFT energy:
Kohn-Sham wavefunction type      ... RKS
Hartree-Fock exchange scaling    ...    0.250
Number of operators              ...    1
Number of atoms                  ...   16
Basis set dimensions             ...  246
Integral neglect threshold       ... 2.5e-11
Integral primitive cutoff        ... 2.5e-12

Nuclear repulsion gradient       ... done
One Electron Gradient            ... done
Pre-screening matrix             ... done
Starting the two electron gradient:
Two electron gradient done
Exchange-correlation gradient    ... done

------------------
CARTESIAN GRADIENT
------------------

   1   C   :    0.000111794   -0.000052430   -0.000153717
   2   O   :   -0.000130362   -0.000044479    0.000007529
   3   C   :    0.000157349   -0.000016363   -0.000141916
   4   C   :   -0.000120362   -0.000048917    0.000049722
   5   N   :    0.000131818   -0.000051001    0.000061300
   6   C   :    0.000049642    0.000231914    0.000008789
   7   H   :   -0.000000904   -0.000010841    0.000061374
   8   H   :    0.000049213    0.000064102    0.000011461
   9   H   :   -0.000040884    0.000028785    0.000044470
  10   H   :   -0.000049738    0.000061285    0.000017422
  11   H   :    0.000010243   -0.000084607    0.000022202
  12   H   :   -0.000082535    0.000026333   -0.000079691
  13   H   :   -0.000003246   -0.000038841    0.000084165
  14   H   :   -0.000093985    0.000038003    0.000001224
  15   H   :    0.000035736   -0.000098390    0.000018467
  16   H   :   -0.000023780   -0.000004552   -0.000012803

Norm of the cartesian gradient     ...    0.000525914
RMS gradient                       ...    0.000075909
MAX gradient                       ...    0.000231914

-------
TIMINGS
-------

Total SCF gradient time            ...       23.630 sec

One electron gradient       ....       0.098 sec  (  0.4%)
Prescreening matrices       ....       0.387 sec  (  1.6%)
Two electron gradient       ....      19.268 sec  ( 81.5%)
XC gradient                 ....       3.436 sec  ( 14.5%)
           ************************************************************
           *              Shut down parallel processing               *
           ************************************************************
------------------------------------------------------------------------------
                         ORCA GEOMETRY RELAXATION STEP
------------------------------------------------------------------------------

Reading the OPT-File                    .... done
Getting information on internals        .... done
Copying old internal coords+grads       .... done
Making the new internal coordinates     .... (new redundants).... done
Validating the new internal coordinates .... (new redundants).... done
Calculating the B-matrix                .... done
Calculating the G,G- and P matrices     .... done
Transforming gradient to internals      .... done
Projecting the internal gradient        .... done
Number of atoms                         ....  16
Number of internal coordinates          ....  89
Current Energy                          ....  -287.906960948 Eh
Current gradient norm                   ....     0.000525914 Eh/bohr
Maximum allowed component of the step   ....  0.300
Current trust radius                    ....  0.300
Evaluating the initial hessian          ....  (Almloef) done
Projecting the Hessian                  .... done
Forming the augmented Hessian           .... done
Diagonalizing the augmented Hessian     .... done
Last element of RFO vector              ....  0.999995331
Lowest eigenvalues of augmented Hessian:
 -0.000000601  0.011179638  0.019645899  0.029455616  0.050681567
Length of the computed step             ....  0.003055810
The final length of the internal step   ....  0.003055810
Converting the step to cartesian space:
 Initial RMS(Int)=    0.0003239152
Transforming coordinates:
 Iter   0:  RMS(Cart)=    0.0007499825 RMS(Int)=    0.0003238998
 Iter   1:  RMS(Cart)=    0.0000002747 RMS(Int)=    0.0000001593
 Iter   2:  RMS(Cart)=    0.0000000002 RMS(Int)=    0.0000000001
done
Storing new coordinates                 .... done

                                .--------------------.
          ----------------------|Geometry convergence|---------------------
          Item                value                 Tolerance   Converged
          -----------------------------------------------------------------
          RMS gradient        0.00004230            0.00003000      NO
          MAX gradient        0.00015439            0.00010000      NO
          RMS step            0.00032392            0.00060000      YES
          MAX step            0.00081194            0.00100000      YES
          ....................................................
          Max(Bonds)      0.0002      Max(Angles)    0.01
          Max(Dihed)        0.05      Max(Improp)    0.00
          -----------------------------------------------------------------

The optimization has not yet converged - more geometry cycles are needed


    ---------------------------------------------------------------------------
                         Redundant Internal Coordinates
                            (Angstroem and degrees)

        Definition                    Value    dE/dq     Step     New-Value
    ----------------------------------------------------------------------------
     1. B(O   1,C   0)                1.4214 -0.000121  0.0001    1.4216   
     2. B(C   2,O   1)                1.3691 -0.000030  0.0000    1.3691   
     3. B(C   3,C   2)                1.5332 -0.000154  0.0002    1.5334   
     4. B(N   4,C   3)                1.5177 -0.000085  0.0001    1.5178   
     5. B(C   5,N   4)                1.5174 -0.000108  0.0002    1.5176   
     6. B(C   5,C   2)                1.5537 -0.000092  0.0001    1.5539   
     7. B(H   6,C   0)                1.0874  0.000058 -0.0001    1.0873   
     8. B(H   7,C   0)                1.0952 -0.000078  0.0001    1.0953   
     9. B(H   8,C   0)                1.0948  0.000051 -0.0001    1.0947   
    10. B(H   9,C   2)                1.0972  0.000073 -0.0001    1.0971   
    11. B(H  10,C   3)                1.0871 -0.000088  0.0001    1.0872   
    12. B(H  11,C   3)                1.0884 -0.000113  0.0002    1.0886   
    13. B(H  12,N   4)                1.0184 -0.000084  0.0001    1.0185   
    14. B(H  13,N   4)                1.0187 -0.000095  0.0001    1.0188   
    15. B(H  14,C   5)                1.0888  0.000103 -0.0002    1.0887   
    16. B(H  15,C   5)                1.0878  0.000027 -0.0000    1.0877   
    17. A(O   1,C   0,H   6)          106.57  0.000026   -0.00    106.57   
    18. A(H   6,C   0,H   8)          109.41 -0.000038    0.01    109.42   
    19. A(H   7,C   0,H   8)          109.57  0.000008   -0.00    109.56   
    20. A(O   1,C   0,H   8)          110.76  0.000052   -0.01    110.75   
    21. A(H   6,C   0,H   7)          109.08 -0.000003    0.00    109.09   
    22. A(O   1,C   0,H   7)          111.38 -0.000046    0.01    111.38   
    23. A(C   0,O   1,C   2)          114.58  0.000077   -0.01    114.57   
    24. A(O   1,C   2,H   9)          112.43  0.000010   -0.00    112.43   
    25. A(C   3,C   2,C   5)           88.02  0.000002   -0.00     88.02   
    26. A(O   1,C   2,C   3)          111.65  0.000001    0.00    111.65   
    27. A(C   5,C   2,H   9)          112.13  0.000018   -0.01    112.12   
    28. A(O   1,C   2,C   5)          117.17 -0.000029    0.01    117.18   
    29. A(C   3,C   2,H   9)          113.30 -0.000004   -0.00    113.30   
    30. A(C   2,C   3,N   4)           90.29  0.000016   -0.01     90.28   
    31. A(H  10,C   3,H  11)          111.13 -0.000002    0.00    111.13   
    32. A(N   4,C   3,H  11)          109.52 -0.000032    0.01    109.53   
    33. A(C   2,C   3,H  11)          111.54  0.000015   -0.00    111.54   
    34. A(N   4,C   3,H  10)          112.89  0.000011   -0.00    112.89   
    35. A(C   2,C   3,H  10)          119.60 -0.000008   -0.00    119.60   
    36. A(C   3,N   4,C   5)           89.93 -0.000016    0.00     89.93   
    37. A(C   5,N   4,H  13)          116.27  0.000011   -0.01    116.26   
    38. A(C   3,N   4,H  13)          116.13  0.000029   -0.01    116.12   
    39. A(C   5,N   4,H  12)          112.94 -0.000019    0.01    112.95   
    40. A(C   3,N   4,H  12)          113.02 -0.000009    0.01    113.02   
    41. A(H  12,N   4,H  13)          107.91  0.000000   -0.00    107.91   
    42. A(N   4,C   5,H  15)          112.34  0.000005   -0.00    112.34   
    43. A(C   2,C   5,H  15)          120.03 -0.000007    0.00    120.03   
    44. A(N   4,C   5,H  14)          109.37 -0.000004    0.00    109.37   
    45. A(C   2,C   5,N   4)           89.53  0.000002   -0.00     89.52   
    46. A(H  14,C   5,H  15)          111.18 -0.000007    0.00    111.19   
    47. A(C   2,C   5,H  14)          112.28  0.000013   -0.00    112.28   
    48. D(C   2,O   1,C   0,H   6)   -176.98 -0.000019    0.05   -176.93   
    49. D(C   2,O   1,C   0,H   8)    -58.06 -0.000021    0.05    -58.01   
    50. D(C   2,O   1,C   0,H   7)     64.15 -0.000006    0.04     64.19   
    51. D(C   5,C   2,O   1,C   0)    -89.47  0.000011   -0.03    -89.50   
    52. D(H   9,C   2,O   1,C   0)     42.59  0.000019   -0.04     42.55   
    53. D(C   3,C   2,O   1,C   0)    171.21  0.000023   -0.04    171.17   
    54. D(N   4,C   3,C   2,O   1)    129.72 -0.000039    0.04    129.75   
    55. D(H  10,C   3,C   2,H   9)     14.64 -0.000008    0.03     14.66   
    56. D(H  11,C   3,C   2,H   9)    146.70 -0.000003    0.03    146.72   
    57. D(H  10,C   3,C   2,C   5)    127.93  0.000012    0.02    127.95   
    58. D(N   4,C   3,C   2,C   5)     11.17 -0.000008    0.02     11.20   
    59. D(H  11,C   3,C   2,O   1)     18.54 -0.000014    0.03     18.57   
    60. D(N   4,C   3,C   2,H   9)   -102.12 -0.000028    0.03   -102.09   
    61. D(H  11,C   3,C   2,C   5)   -100.01  0.000017    0.02    -99.99   
    62. D(H  10,C   3,C   2,O   1)   -113.52 -0.000019    0.03   -113.49   
    63. D(H  13,N   4,C   3,H  11)    -17.89  0.000013   -0.02    -17.91   
    64. D(H  13,N   4,C   3,C   2)   -130.93 -0.000004   -0.01   -130.94   
    65. D(H  12,N   4,C   3,H  10)    -18.99 -0.000024    0.00    -18.99   
    66. D(H  12,N   4,C   3,C   2)    103.58 -0.000023   -0.01    103.58   
    67. D(C   5,N   4,C   3,H  11)    101.60  0.000024   -0.03    101.57   
    68. D(C   5,N   4,C   3,H  10)   -134.01  0.000006   -0.02   -134.02   
    69. D(H  13,N   4,C   3,H  10)    106.50 -0.000006   -0.01    106.49   
    70. D(C   5,N   4,C   3,C   2)    -11.44  0.000007   -0.02    -11.46   
    71. D(H  12,N   4,C   3,H  11)   -143.38 -0.000006   -0.01   -143.39   
    72. D(H  14,C   5,C   2,H   9)   -145.97  0.000003   -0.03   -146.00   
    73. D(H  14,C   5,C   2,C   3)     99.62  0.000005   -0.02     99.60   
    74. D(H  14,C   5,C   2,O   1)    -13.78  0.000007   -0.03    -13.81   
    75. D(N   4,C   5,C   2,H   9)    103.23  0.000006   -0.02    103.21   
    76. D(N   4,C   5,C   2,C   3)    -11.18  0.000007   -0.02    -11.20   
    77. D(H  15,C   5,C   2,O   1)    119.68  0.000005   -0.02    119.66   
    78. D(N   4,C   5,C   2,O   1)   -124.58  0.000010   -0.03   -124.60   
    79. D(H  15,C   5,N   4,H  13)   -106.82  0.000011    0.01   -106.81   
    80. D(H  15,C   5,N   4,H  12)     18.72  0.000004    0.01     18.73   
    81. D(H  15,C   5,N   4,C   3)    133.81 -0.000017    0.02    133.83   
    82. D(H  14,C   5,N   4,H  13)     17.14  0.000002    0.01     17.16   
    83. D(H  14,C   5,N   4,H  12)    142.68 -0.000005    0.02    142.70   
    84. D(H  14,C   5,N   4,C   3)   -102.23 -0.000026    0.03   -102.20   
    85. D(C   2,C   5,N   4,H  13)    130.66  0.000016    0.01    130.67   
    86. D(C   2,C   5,N   4,H  12)   -103.81  0.000009    0.01   -103.79   
    87. D(C   2,C   5,N   4,C   3)     11.28 -0.000012    0.02     11.31   
    88. D(H  15,C   5,C   2,H   9)    -12.51  0.000001   -0.02    -12.53   
    89. D(H  15,C   5,C   2,C   3)   -126.92  0.000002   -0.02   -126.94   
    ----------------------------------------------------------------------------

         *************************************************************
         *                GEOMETRY OPTIMIZATION CYCLE   2            *
         *************************************************************
---------------------------------
CARTESIAN COORDINATES (ANGSTROEM)
---------------------------------
  C     -1.120121   -0.412787    2.106038
  O      0.000122   -0.000405    1.334111
  C     -0.291651    0.326133    0.036924
  C      0.910303    0.964134   -0.669856
  N      0.748572    0.000315   -1.831208
  C     -0.233644   -0.817706   -1.013210
  H     -0.754638   -0.584809    3.115548
  H     -1.552080   -1.341673    1.718395
  H     -1.886981    0.368238    2.124738
  H     -1.210493    0.919360   -0.048812
  H      0.862432    2.006392   -0.975461
  H      1.840833    0.750895   -0.146786
  H      0.321941    0.430889   -2.649754
  H      1.593232   -0.481517   -2.135095
  H      0.266951   -1.705127   -0.629640
  H     -1.123764   -1.082369   -1.579566

----------------------------
CARTESIAN COORDINATES (A.U.)
----------------------------
  NO LB      ZA    FRAG    MASS        X           Y           Z
   0 C     6.0000    0    12.011         -2.116722419218793         -0.780053891063647          3.979835900525018
   1 O     8.0000    0    15.999          0.000230432791100         -0.000765389822149          2.521104231751987
   2 C     6.0000    0    12.011         -0.551140650912216          0.616302831293942          0.069776080250373
   3 C     6.0000    0    12.011          1.720224263253858          1.821949929045472         -1.265844200945364
   4 N     7.0000    0    14.007          1.414596500659947          0.000595024093169         -3.460480935533975
   5 C     6.0000    0    12.011         -0.441522841947741         -1.545240739168098         -1.914689624966861
   6 H     1.0000    0     1.008         -1.426058421094248         -1.105128875831252          5.887532479433080
   7 H     1.0000    0     1.008         -2.933005337484269         -2.535394517918653          3.247296436770163
   8 H     1.0000    0     1.008         -3.565876602378110          0.695869522067477          4.015173636981269
   9 H     1.0000    0     1.008         -2.287501069080690          1.737339235159361         -0.092241203752928
  10 H     1.0000    0     1.008          1.629759626739220          3.791531935276435         -1.843353938173846
  11 H     1.0000    0     1.008          3.478670373553784          1.418985078704491         -0.277385989026942
  12 H     1.0000    0     1.008          0.608381238073403          0.814262966284162         -5.007310062680620
  13 H     1.0000    0     1.008          3.010771851438726         -0.909934885158883         -4.034745640951311
  14 H     1.0000    0     1.008          0.504464709092980         -3.222223603743770         -1.189846835323904
  15 H     1.0000    0     1.008         -2.123607030429419         -2.045381493596181         -2.984947556714487

--------------------------------
INTERNAL COORDINATES (ANGSTROEM)
--------------------------------
 C      0   0   0   0.000000     0.000     0.000
 O      1   0   0   1.421575     0.000     0.000
 C      2   1   0   1.369107   114.565     0.000
 C      3   2   1   1.533388   111.648   171.171
 N      4   3   2   1.517842    90.283   129.754
 C      5   4   3   1.517573    89.933   348.540
 H      1   2   3   1.087327   106.568   183.065
 H      1   2   3   1.095301   111.384    64.193
 H      1   2   3   1.094725   110.753   301.991
 H      3   2   1   1.097060   112.427    42.551
 H      4   3   2   1.087193   119.599   246.508
 H      4   3   2   1.088558   111.535    18.567
 H      5   4   3   1.018542   113.023   103.577
 H      5   4   3   1.018803   116.116   229.056
 H      6   5   4   1.088686   109.371   257.796
 H      6   5   4   1.087713   112.343   133.831

---------------------------
INTERNAL COORDINATES (A.U.)
---------------------------
 C      0   0   0   0.000000     0.000     0.000
 O      1   0   0   2.686388     0.000     0.000
 C      2   1   0   2.587237   114.565     0.000
 C      3   2   1   2.897683   111.648   171.171
 N      4   3   2   2.868305    90.283   129.754
 C      5   4   3   2.867797    89.933   348.540
 H      1   2   3   2.054750   106.568   183.065
 H      1   2   3   2.069819   111.384    64.193
 H      1   2   3   2.068731   110.753   301.991
 H      3   2   1   2.073142   112.427    42.551
 H      4   3   2   2.054496   119.599   246.508
 H      4   3   2   2.057076   111.535    18.567
 H      5   4   3   1.924765   113.023   103.577
 H      5   4   3   1.925259   116.116   229.056
 H      6   5   4   2.057319   109.371   257.796
 H      6   5   4   2.055480   112.343   133.831



           ************************************************************
           *        Program running with 8 parallel MPI-processes     *
           *              working on a common directory               *
           ************************************************************
           ************************************************************
           *              Shut down parallel processing               *
           ************************************************************


           ************************************************************
           *        Program running with 8 parallel MPI-processes     *
           *              working on a common directory               *
           ************************************************************

Diagonalization of the overlap matrix:
Smallest eigenvalue                        ... 1.077e-04
Time for diagonalization                   ...    0.018 sec
Threshold for overlap eigenvalues          ... 1.000e-08
Number of eigenvalues below threshold      ... 0
Time for construction of square roots      ...    0.011 sec
Total time needed                          ...    0.029 sec

-------------------
DFT GRID GENERATION
-------------------

General Integration Accuracy     IntAcc      ...  4.340
Radial Grid Type                 RadialGrid  ... Gauss-Chebyshev
Angular Grid (max. acc.)         AngularGrid ... Lebedev-194
Angular grid pruning method      GridPruning ... 3 (G Style)
Weight generation scheme         WeightScheme... Becke
Basis function cutoff            BFCut       ...    1.0000e-11
Integration weight cutoff        WCut        ...    1.0000e-14
Grids for H and He will be reduced by one unit

# of grid points (after initial pruning)     ...  35088 (   0.0 sec)
# of grid points (after weights+screening)   ...  32367 (   0.0 sec)
nearest neighbour list constructed           ...    0.0 sec
Grid point re-assignment to atoms done       ...    0.0 sec
Grid point division into batches done        ...    0.1 sec
Reduced shell lists constructed in    0.1 sec

Total number of grid points                  ...    32367
Total number of batches                      ...      515
Average number of points per batch           ...       62
Average number of grid points per atom       ...     2023
Average number of shells per batch           ...    82.76 (78.07%)
Average number of basis functions per batch  ...   199.30 (81.02%)
Average number of large shells per batch     ...    68.02 (82.19%)
Average number of large basis fcns per batch ...   163.65 (82.11%)
Maximum spatial batch extension              ...   6.00,  8.42,  6.46 au
Average spatial batch extension              ...   0.18,  0.20,  0.18 au

Time for grid setup =    0.190 sec

--------------
SCF ITERATIONS
--------------
ITER       Energy         Delta-E        Max-DP      RMS-DP      [F,P]     Damp
               ***  Starting incremental Fock matrix formation  ***
                      *** Initiating the SOSCF procedure ***
                      *** Re-Reading the Fockian *** 
                      *** Removing any level shift *** 
ITER      Energy       Delta-E        Grad      Rot      Max-DP    RMS-DP
  0   -287.90724230 -287.9072422987  0.000053  0.000053  0.000095  0.000003
               *** Restarting incremental Fock matrix formation ***
  1   -287.90724275  -0.0000004494  0.000022  0.000037  0.000040  0.000001
  2   -287.90724279  -0.0000000435  0.000014  0.000019  0.000024  0.000001
  3   -287.90724279  -0.0000000008  0.000013  0.000009  0.000012  0.000000
                  ***Gradient check signals convergence***
              ***Rediagonalizing the Fockian in SOSCF/NRSCF***

               *****************************************************
               *                     SUCCESS                       *
               *           SCF CONVERGED AFTER   4 CYCLES          *
               *****************************************************

Setting up the final grid:

General Integration Accuracy     IntAcc      ...  5.010
Radial Grid Type                 RadialGrid  ... Gauss-Chebyshev
Angular Grid (max. acc.)         AngularGrid ... Lebedev-434
Angular grid pruning method      GridPruning ... 3 (G Style)
Weight generation scheme         WeightScheme... Becke
Basis function cutoff            BFCut       ...    1.0000e-11
Integration weight cutoff        WCut        ...    1.0000e-14
Grids for H and He will be reduced by one unit

# of grid points (after initial pruning)     ... 131144 (   0.0 sec)
# of grid points (after weights+screening)   ... 119668 (   0.1 sec)
nearest neighbour list constructed           ...    0.0 sec
Grid point re-assignment to atoms done       ...    0.0 sec
Grid point division into batches done        ...    0.9 sec
Reduced shell lists constructed in    1.1 sec

Total number of grid points                  ...   119668
Total number of batches                      ...     1877
Average number of points per batch           ...       63
Average number of grid points per atom       ...     7479
Average number of shells per batch           ...    81.98 (77.34%)
Average number of basis functions per batch  ...   197.71 (80.37%)
Average number of large shells per batch     ...    66.95 (81.67%)
Average number of large basis fcns per batch ...   161.31 (81.59%)
Maximum spatial batch extension              ...   4.70,  6.28,  4.32 au
Average spatial batch extension              ...   0.12,  0.12,  0.12 au

Final grid set up in    1.3 sec
Final integration                            ... done (   0.7 sec)
Change in XC energy                          ...     0.000281426
Integrated number of electrons               ...    48.000005162
Previous integrated no of electrons          ...    48.000177777
Total Energy       :         -287.90696137 Eh           -7834.34671 eV
  Last Energy change         ...   -3.8429e-09  Tolerance :   1.0000e-08
  Last MAX-Density change    ...    2.8218e-06  Tolerance :   1.0000e-07
             **** THE GBW FILE WAS UPDATED (1075_+.gbw) ****
             **** DENSITY FILE WAS UPDATED (1075_+.scfp.tmp) ****
             **** ENERGY FILE WAS UPDATED (1075_+.en.tmp) ****
Total SCF time: 0 days 0 hours 0 min 21 sec 
           ************************************************************
           *              Shut down parallel processing               *
           ************************************************************

-------------------------   --------------------
FINAL SINGLE POINT ENERGY      -287.906961369831
-------------------------   --------------------



           ************************************************************
           *        Program running with 8 parallel MPI-processes     *
           *              working on a common directory               *
           ************************************************************
------------------------------------------------------------------------------
                         ORCA SCF GRADIENT CALCULATION
------------------------------------------------------------------------------

Gradient of the Kohn-Sham DFT energy:
Kohn-Sham wavefunction type      ... RKS
Hartree-Fock exchange scaling    ...    0.250
Number of operators              ...    1
Number of atoms                  ...   16
Basis set dimensions             ...  246
Integral neglect threshold       ... 2.5e-11
Integral primitive cutoff        ... 2.5e-12

Nuclear repulsion gradient       ... done
One Electron Gradient            ... done
Pre-screening matrix             ... done
Starting the two electron gradient:
Two electron gradient done
Exchange-correlation gradient    ... done

------------------
CARTESIAN GRADIENT
------------------

   1   C   :    0.000076022    0.000002752   -0.000059986
   2   O   :   -0.000050788   -0.000003335    0.000034783
   3   C   :    0.000009530    0.000005299   -0.000089410
   4   C   :   -0.000063362   -0.000038787    0.000023079
   5   N   :    0.000059380   -0.000012864    0.000039822
   6   C   :    0.000027560    0.000045428    0.000024331
   7   H   :   -0.000012878   -0.000001731    0.000009277
   8   H   :    0.000002083   -0.000000524   -0.000003108
   9   H   :   -0.000006537   -0.000001210    0.000029548
  10   H   :   -0.000001114    0.000014820    0.000026002
  11   H   :    0.000002487   -0.000001916   -0.000004269
  12   H   :    0.000007078    0.000016677   -0.000008027
  13   H   :   -0.000023395    0.000000210    0.000000447
  14   H   :   -0.000004012   -0.000004140   -0.000016062
  15   H   :   -0.000020660   -0.000017998   -0.000005159
  16   H   :   -0.000001393   -0.000002680   -0.000001267

Norm of the cartesian gradient     ...    0.000200434
RMS gradient                       ...    0.000028930
MAX gradient                       ...    0.000089410

-------
TIMINGS
-------

Total SCF gradient time            ...       25.212 sec

One electron gradient       ....       0.187 sec  (  0.7%)
Prescreening matrices       ....       0.680 sec  (  2.7%)
Two electron gradient       ....      19.620 sec  ( 77.8%)
XC gradient                 ....       3.504 sec  ( 13.9%)
           ************************************************************
           *              Shut down parallel processing               *
           ************************************************************
------------------------------------------------------------------------------
                         ORCA GEOMETRY RELAXATION STEP
------------------------------------------------------------------------------

Reading the OPT-File                    .... done
Getting information on internals        .... done
Copying old internal coords+grads       .... done
Making the new internal coordinates     .... (new redundants).... done
Validating the new internal coordinates .... (new redundants).... done
Calculating the B-matrix                .... done
Calculating the G,G- and P matrices     .... done
Transforming gradient to internals      .... done
Projecting the internal gradient        .... done
Number of atoms                         ....  16
Number of internal coordinates          ....  89
Current Energy                          ....  -287.906961370 Eh
Current gradient norm                   ....     0.000200434 Eh/bohr
Maximum allowed component of the step   ....  0.300
Current trust radius                    ....  0.300
Updating the Hessian (BFGS)             .... done
Forming the augmented Hessian           .... done
Diagonalizing the augmented Hessian     .... done
Last element of RFO vector              ....  0.999991288
Lowest eigenvalues of augmented Hessian:
 -0.000000250  0.009148513  0.017833882  0.027249918  0.049732635
Length of the computed step             ....  0.004174282
The final length of the internal step   ....  0.004174282
Converting the step to cartesian space:
 Initial RMS(Int)=    0.0004424730
Transforming coordinates:
 Iter   0:  RMS(Cart)=    0.0009938840 RMS(Int)=    0.0004424530
 Iter   1:  RMS(Cart)=    0.0000004894 RMS(Int)=    0.0000002754
 Iter   2:  RMS(Cart)=    0.0000000004 RMS(Int)=    0.0000000002
done
Storing new coordinates                 .... done

                                .--------------------.
          ----------------------|Geometry convergence|---------------------
          Item                value                 Tolerance   Converged
          -----------------------------------------------------------------
          Energy change      -0.00000042            0.00000100      YES
          RMS gradient        0.00001241            0.00003000      YES
          MAX gradient        0.00005768            0.00010000      YES
          RMS step            0.00044247            0.00060000      YES
          MAX step            0.00115369            0.00100000      NO
          ....................................................
          Max(Bonds)      0.0001      Max(Angles)    0.02
          Max(Dihed)        0.07      Max(Improp)    0.00
          -----------------------------------------------------------------

       The energies and gradients are converged
       and the convergence on bond distances, angles, dihedrals and impropers
       is acceptable.
       Convergence will therefore be signaled now


                    ***********************HURRAY********************
                    ***        THE OPTIMIZATION HAS CONVERGED     ***
                    *************************************************


    ---------------------------------------------------------------------------
                         Redundant Internal Coordinates

                          --- Optimized Parameters ---  
                            (Angstroem and degrees)

        Definition                    OldVal   dE/dq     Step     FinalVal
    ----------------------------------------------------------------------------
     1. B(O   1,C   0)                1.4216 -0.000058  0.0001    1.4217   
     2. B(C   2,O   1)                1.3691  0.000009 -0.0000    1.3691   
     3. B(C   3,C   2)                1.5334 -0.000040  0.0001    1.5335   
     4. B(N   4,C   3)                1.5178 -0.000012  0.0001    1.5179   
     5. B(C   5,N   4)                1.5176 -0.000013  0.0001    1.5176   
     6. B(C   5,C   2)                1.5539 -0.000026  0.0001    1.5540   
     7. B(H   6,C   0)                1.0873  0.000004 -0.0000    1.0873   
     8. B(H   7,C   0)                1.0953  0.000001  0.0000    1.0953   
     9. B(H   8,C   0)                1.0947  0.000006 -0.0000    1.0947   
    10. B(H   9,C   2)                1.0971  0.000007 -0.0000    1.0970   
    11. B(H  10,C   3)                1.0872 -0.000001  0.0000    1.0872   
    12. B(H  11,C   3)                1.0886 -0.000000  0.0000    1.0886   
    13. B(H  12,N   4)                1.0185  0.000009  0.0000    1.0185   
    14. B(H  13,N   4)                1.0188  0.000004  0.0000    1.0188   
    15. B(H  14,C   5)                1.0887  0.000004 -0.0000    1.0886   
    16. B(H  15,C   5)                1.0877  0.000002 -0.0000    1.0877   
    17. A(O   1,C   0,H   6)          106.57  0.000016   -0.00    106.56   
    18. A(H   6,C   0,H   8)          109.42 -0.000028    0.01    109.43   
    19. A(H   7,C   0,H   8)          109.56 -0.000002   -0.00    109.56   
    20. A(O   1,C   0,H   8)          110.75  0.000029   -0.01    110.74   
    21. A(H   6,C   0,H   7)          109.09 -0.000006    0.00    109.09   
    22. A(O   1,C   0,H   7)          111.38 -0.000010    0.00    111.39   
    23. A(C   0,O   1,C   2)          114.57  0.000029   -0.01    114.56   
    24. A(O   1,C   2,H   9)          112.43  0.000002   -0.00    112.43   
    25. A(C   3,C   2,C   5)           88.02  0.000005   -0.00     88.02   
    26. A(O   1,C   2,C   3)          111.65 -0.000004    0.01    111.65   
    27. A(C   5,C   2,H   9)          112.12  0.000010   -0.01    112.11   
    28. A(O   1,C   2,C   5)          117.18 -0.000014    0.01    117.19   
    29. A(C   3,C   2,H   9)          113.30  0.000001   -0.00    113.29   
    30. A(C   2,C   3,N   4)           90.28  0.000004   -0.01     90.28   
    31. A(H  10,C   3,H  11)          111.13 -0.000005    0.01    111.14   
    32. A(N   4,C   3,H  11)          109.53 -0.000008    0.00    109.54   
    33. A(C   2,C   3,H  11)          111.54  0.000010   -0.00    111.53   
    34. A(N   4,C   3,H  10)          112.89  0.000004    0.00    112.89   
    35. A(C   2,C   3,H  10)          119.60 -0.000004   -0.00    119.60   
    36. A(C   3,N   4,C   5)           89.93 -0.000008    0.00     89.93   
    37. A(C   5,N   4,H  13)          116.26  0.000006   -0.01    116.25   
    38. A(C   3,N   4,H  13)          116.12  0.000014   -0.01    116.10   
    39. A(C   5,N   4,H  12)          112.95 -0.000010    0.02    112.97   
    40. A(C   3,N   4,H  12)          113.02 -0.000002    0.01    113.03   
    41. A(H  12,N   4,H  13)          107.91 -0.000001   -0.00    107.91   
    42. A(N   4,C   5,H  15)          112.34  0.000003    0.00    112.34   
    43. A(C   2,C   5,H  15)          120.03 -0.000003    0.00    120.03   
    44. A(N   4,C   5,H  14)          109.37  0.000005   -0.01    109.37   
    45. A(C   2,C   5,N   4)           89.52 -0.000000   -0.00     89.52   
    46. A(H  14,C   5,H  15)          111.19 -0.000009    0.01    111.19   
    47. A(C   2,C   5,H  14)          112.28  0.000008   -0.00    112.27   
    48. D(C   2,O   1,C   0,H   6)   -176.93 -0.000010    0.06   -176.87   
    49. D(C   2,O   1,C   0,H   8)    -58.01 -0.000018    0.07    -57.94   
    50. D(C   2,O   1,C   0,H   7)     64.19 -0.000007    0.06     64.25   
    51. D(C   5,C   2,O   1,C   0)    -89.50  0.000014   -0.05    -89.55   
    52. D(H   9,C   2,O   1,C   0)     42.55  0.000017   -0.06     42.50   
    53. D(C   3,C   2,O   1,C   0)    171.17  0.000016   -0.06    171.11   
    54. D(N   4,C   3,C   2,O   1)    129.75 -0.000015    0.04    129.80   
    55. D(H  10,C   3,C   2,H   9)     14.66 -0.000009    0.04     14.70   
    56. D(H  11,C   3,C   2,H   9)    146.72 -0.000010    0.04    146.77   
    57. D(H  10,C   3,C   2,C   5)    127.95  0.000004    0.03    127.98   
    58. D(N   4,C   3,C   2,C   5)     11.20 -0.000001    0.03     11.22   
    59. D(H  11,C   3,C   2,O   1)     18.57 -0.000010    0.04     18.61   
    60. D(N   4,C   3,C   2,H   9)   -102.09 -0.000015    0.04   -102.05   
    61. D(H  11,C   3,C   2,C   5)    -99.99  0.000004    0.03    -99.96   
    62. D(H  10,C   3,C   2,O   1)   -113.49 -0.000010    0.04   -113.45   
    63. D(H  13,N   4,C   3,H  11)    -17.91  0.000007   -0.03    -17.94   
    64. D(H  13,N   4,C   3,C   2)   -130.94 -0.000004   -0.02   -130.96   
    65. D(H  12,N   4,C   3,H  10)    -18.99 -0.000012   -0.01    -18.99   
    66. D(H  12,N   4,C   3,C   2)    103.58 -0.000013   -0.01    103.57   
    67. D(C   5,N   4,C   3,H  11)    101.57  0.000014   -0.04    101.54   
    68. D(C   5,N   4,C   3,H  10)   -134.02  0.000004   -0.03   -134.05   
    69. D(H  13,N   4,C   3,H  10)    106.49 -0.000003   -0.01    106.48   
    70. D(C   5,N   4,C   3,C   2)    -11.46  0.000002   -0.03    -11.49   
    71. D(H  12,N   4,C   3,H  11)   -143.39 -0.000002   -0.02   -143.41   
    72. D(H  14,C   5,C   2,H   9)   -146.00  0.000012   -0.04   -146.04   
    73. D(H  14,C   5,C   2,C   3)     99.60  0.000008   -0.04     99.56   
    74. D(H  14,C   5,C   2,O   1)    -13.81  0.000012   -0.04    -13.85   
    75. D(N   4,C   5,C   2,H   9)    103.21  0.000006   -0.04    103.17   
    76. D(N   4,C   5,C   2,C   3)    -11.20  0.000001   -0.03    -11.23   
    77. D(H  15,C   5,C   2,O   1)    119.66  0.000003   -0.03    119.62   
    78. D(N   4,C   5,C   2,O   1)   -124.60  0.000005   -0.04   -124.64   
    79. D(H  15,C   5,N   4,H  13)   -106.81  0.000006    0.01   -106.80   
    80. D(H  15,C   5,N   4,H  12)     18.73  0.000002    0.02     18.75   
    81. D(H  15,C   5,N   4,C   3)    133.83 -0.000006    0.03    133.86   
    82. D(H  14,C   5,N   4,H  13)     17.16 -0.000000    0.02     17.17   
    83. D(H  14,C   5,N   4,H  12)    142.70 -0.000004    0.03    142.72   
    84. D(H  14,C   5,N   4,C   3)   -102.20 -0.000013    0.04   -102.17   
    85. D(C   2,C   5,N   4,H  13)    130.67  0.000009    0.01    130.68   
    86. D(C   2,C   5,N   4,H  12)   -103.79  0.000005    0.02   -103.77   
    87. D(C   2,C   5,N   4,C   3)     11.31 -0.000003    0.03     11.34   
    88. D(H  15,C   5,C   2,H   9)    -12.53  0.000004   -0.03    -12.57   
    89. D(H  15,C   5,C   2,C   3)   -126.94 -0.000001   -0.03   -126.96   
    ----------------------------------------------------------------------------
                 *******************************************************
                 *** FINAL ENERGY EVALUATION AT THE STATIONARY POINT ***
                 ***               (AFTER    2 CYCLES)               ***
                 *******************************************************


           ************************************************************
           *        Program running with 8 parallel MPI-processes     *
           *              working on a common directory               *
           ************************************************************
           ************************************************************
           *              Shut down parallel processing               *
           ************************************************************


           ************************************************************
           *        Program running with 8 parallel MPI-processes     *
           *              working on a common directory               *
           ************************************************************
------------
SCF SETTINGS
------------
Hamiltonian:
 Density Functional     Method          .... DFT(GTOs)
 Exchange Functional    Exchange        .... PBE
   PBE kappa parameter  XKappa          ....  0.804000
 Correlation Functional Correlation     .... PBE
 LDA part of GGA corr.  LDAOpt          .... PW91-LDA
 Gradients option       PostSCFGGA      .... off
 Hybrid DFT is turned on
   Fraction HF Exchange ScalHFX         ....  0.250000
   Scaling of DF-GGA-X  ScalDFX         ....  0.750000
   Scaling of DF-GGA-C  ScalDFC         ....  1.000000
   Scaling of DF-LDA-C  ScalLDAC        ....  1.000000
   Perturbative correction              ....  0.000000
   NL short-range parameter             ....  6.900000


General Settings:
 Integral files         IntName         .... 1075_+
 Hartree-Fock type      HFTyp           .... RHF
 Total Charge           Charge          ....    1
 Multiplicity           Mult            ....    1
 Number of Electrons    NEL             ....   48
 Basis Dimension        Dim             ....  246
 Nuclear Repulsion      ENuc            ....    263.9294532736 Eh

Convergence Acceleration:
 DIIS                   CNVDIIS         .... on
   Start iteration      DIISMaxIt       ....    12
   Startup error        DIISStart       ....  0.200000
   # of expansion vecs  DIISMaxEq       ....     5
   Bias factor          DIISBfac        ....   1.050
   Max. coefficient     DIISMaxC        ....  10.000
 Newton-Raphson         CNVNR           .... off
 SOSCF                  CNVSOSCF        .... on
   Start iteration      SOSCFMaxIt      ....   150
   Startup grad/error   SOSCFStart      ....  0.003300
 Level Shifting         CNVShift        .... on
   Level shift para.    LevelShift      ....    0.2500
   Turn off err/grad.   ShiftErr        ....    0.0010
 Zerner damping         CNVZerner       .... off
 Static damping         CNVDamp         .... on
   Fraction old density DampFac         ....    0.7000
   Max. Damping (<1)    DampMax         ....    0.9800
   Min. Damping (>=0)   DampMin         ....    0.0000
   Turn off err/grad.   DampErr         ....    0.1000
 Fernandez-Rico         CNVRico         .... off

SCF Procedure:
 Maximum # iterations   MaxIter         ....   125
 SCF integral mode      SCFMode         .... Direct
   Integral package                     .... LIBINT
 Reset frequeny         DirectResetFreq ....    20
 Integral Threshold     Thresh          ....  2.500e-11 Eh
 Primitive CutOff       TCut            ....  2.500e-12 Eh

Convergence Tolerance:
 Convergence Check Mode ConvCheckMode   .... Total+1el-Energy
 Energy Change          TolE            ....  1.000e-08 Eh
 1-El. energy change                    ....  1.000e-05 Eh
 Orbital Gradient       TolG            ....  1.000e-05
 Orbital Rotation angle TolX            ....  1.000e-05
 DIIS Error             TolErr          ....  5.000e-07


Diagonalization of the overlap matrix:
Smallest eigenvalue                        ... 1.078e-04
Time for diagonalization                   ...    0.017 sec
Threshold for overlap eigenvalues          ... 1.000e-08
Number of eigenvalues below threshold      ... 0
Time for construction of square roots      ...    0.011 sec
Total time needed                          ...    0.028 sec

-------------------
DFT GRID GENERATION
-------------------

General Integration Accuracy     IntAcc      ...  4.340
Radial Grid Type                 RadialGrid  ... Gauss-Chebyshev
Angular Grid (max. acc.)         AngularGrid ... Lebedev-194
Angular grid pruning method      GridPruning ... 3 (G Style)
Weight generation scheme         WeightScheme... Becke
Basis function cutoff            BFCut       ...    1.0000e-11
Integration weight cutoff        WCut        ...    1.0000e-14
Grids for H and He will be reduced by one unit

# of grid points (after initial pruning)     ...  35088 (   0.0 sec)
# of grid points (after weights+screening)   ...  32368 (   0.0 sec)
nearest neighbour list constructed           ...    0.0 sec
Grid point re-assignment to atoms done       ...    0.0 sec
Grid point division into batches done        ...    0.1 sec
Reduced shell lists constructed in    0.1 sec

Total number of grid points                  ...    32368
Total number of batches                      ...      515
Average number of points per batch           ...       62
Average number of grid points per atom       ...     2023
Average number of shells per batch           ...    82.74 (78.06%)
Average number of basis functions per batch  ...   199.29 (81.01%)
Average number of large shells per batch     ...    68.03 (82.22%)
Average number of large basis fcns per batch ...   163.73 (82.16%)
Maximum spatial batch extension              ...   6.00,  8.42,  6.46 au
Average spatial batch extension              ...   0.18,  0.20,  0.18 au

Time for grid setup =    0.190 sec

--------------
SCF ITERATIONS
--------------
ITER       Energy         Delta-E        Max-DP      RMS-DP      [F,P]     Damp
               ***  Starting incremental Fock matrix formation  ***
                      *** Initiating the SOSCF procedure ***
                      *** Re-Reading the Fockian *** 
                      *** Removing any level shift *** 
ITER      Energy       Delta-E        Grad      Rot      Max-DP    RMS-DP
  0   -287.90724231 -287.9072423051  0.000073  0.000073  0.000117  0.000004
               *** Restarting incremental Fock matrix formation ***
  1   -287.90724308  -0.0000007786  0.000028  0.000051  0.000052  0.000002
  2   -287.90724316  -0.0000000808  0.000005  0.000012  0.000015  0.000000
  3   -287.90724316  -0.0000000001  0.000006  0.000004  0.000011  0.000000
                  ***Gradient check signals convergence***
              ***Rediagonalizing the Fockian in SOSCF/NRSCF***

               *****************************************************
               *                     SUCCESS                       *
               *           SCF CONVERGED AFTER   4 CYCLES          *
               *****************************************************

Setting up the final grid:

General Integration Accuracy     IntAcc      ...  5.010
Radial Grid Type                 RadialGrid  ... Gauss-Chebyshev
Angular Grid (max. acc.)         AngularGrid ... Lebedev-434
Angular grid pruning method      GridPruning ... 3 (G Style)
Weight generation scheme         WeightScheme... Becke
Basis function cutoff            BFCut       ...    1.0000e-11
Integration weight cutoff        WCut        ...    1.0000e-14
Grids for H and He will be reduced by one unit

# of grid points (after initial pruning)     ... 131144 (   0.0 sec)
# of grid points (after weights+screening)   ... 119668 (   0.1 sec)
nearest neighbour list constructed           ...    0.0 sec
Grid point re-assignment to atoms done       ...    0.0 sec
Grid point division into batches done        ...    0.9 sec
Reduced shell lists constructed in    1.1 sec

Total number of grid points                  ...   119668
Total number of batches                      ...     1878
Average number of points per batch           ...       63
Average number of grid points per atom       ...     7479
Average number of shells per batch           ...    81.96 (77.32%)
Average number of basis functions per batch  ...   197.63 (80.34%)
Average number of large shells per batch     ...    66.91 (81.63%)
Average number of large basis fcns per batch ...   161.27 (81.60%)
Maximum spatial batch extension              ...   4.70,  6.28,  4.32 au
Average spatial batch extension              ...   0.12,  0.12,  0.12 au

Final grid set up in    1.3 sec
Final integration                            ... done (   0.7 sec)
Change in XC energy                          ...     0.000281586
Integrated number of electrons               ...    48.000005127
Previous integrated no of electrons          ...    48.000177804
Total Energy       :         -287.90696158 Eh           -7834.34672 eV
  Last Energy change         ...   -1.9335e-09  Tolerance :   1.0000e-08
  Last MAX-Density change    ...    3.4006e-06  Tolerance :   1.0000e-07
             **** THE GBW FILE WAS UPDATED (1075_+.gbw) ****
             **** DENSITY FILE WAS UPDATED (1075_+.scfp.tmp) ****
             **** ENERGY FILE WAS UPDATED (1075_+.en.tmp) ****
Total SCF time: 0 days 0 hours 0 min 21 sec 
           ************************************************************
           *              Shut down parallel processing               *
           ************************************************************

-------------------------   --------------------
FINAL SINGLE POINT ENERGY      -287.906961580488
-------------------------   --------------------

                                *** OPTIMIZATION RUN DONE ***

                            ***************************************
                            *     ORCA property calculations      *
                            ***************************************

                                    ---------------------
                                    Active property flags
                                    ---------------------




           ************************************************************
           *        Program running with 8 parallel MPI-processes     *
           *              working on a common directory               *
           ************************************************************

-------------------------------------------------------------------------------
                               ORCA SCF HESSIAN
-------------------------------------------------------------------------------

Hessian of the Kohn-Sham DFT energy:
Kohn-Sham wavefunction type                      ... RKS
Hartree-Fock exchange scaling                    ...    0.250
Number of operators                              ...    1
Number of atoms                                  ...   16
Basis set dimensions                             ...  246
Integral neglect threshold                       ... 2.5e-11
Integral primitive cutoff                        ... 2.5e-12

Setting up DFT Hessian calculations              ... 
Electron density on the grid                     ... found on disk
Electron density on the final grid               ... found on disk
Building xc-kernel on the grid                   ... done   (      0.0 sec)
Building xc-kernel on the final grid             ... done   (      0.0 sec)
                                                     done   (      0.2 sec)

Nuclear repulsion Hessian                        ... done   (      0.0 sec)

----------------------------------------------
Forming right-hand sides of CP-SCF equations     ...
----------------------------------------------
One electron integral derivatives                ... done   (      0.3 sec)
Transforming the overlap derivative matrices     ... done   (      0.1 sec)
Making the Q(x) pseudodensities                  ... done   (      0.1 sec)
Adding the E*S(x)*S(y) terms to the Hessian      ... done   (      0.0 sec)
Calculating energy weighted overlap derivatives  ... done   (      0.0 sec)
Two electron integral derivatives                ... done   (     29.1 sec)
Exchange-correlation integral derivatives        ... done   (     42.1 sec)
tr(F(y)Q(x)) contribution to the Hessian         ... done   (      0.0 sec)
Response fock operator R(S(x))                   ... done   (     98.1 sec)
XC Response fock operator R(S(x))                ... done   (     17.4 sec)
tr(F(y)S(x)) contribution to the Hessian         ... done   (      0.0 sec)
Transforming and finalizing RHSs                 ... done   (      0.1 sec)

----------------------------------------------
Solving the CP-SCF equations                     ...
----------------------------------------------
     CP-SCF ITERATION   0: 
     CP-SCF ITERATION   1:      0.000724117
     CP-SCF ITERATION   2:      0.000068036
     CP-SCF ITERATION   3:      0.000005190
     CP-SCF ITERATION   4:      0.000000293
     CP-SCF ITERATION   5:      0.000000026
     CP-SCF ITERATION   6:      0.000000009

                                                 ... done   (    737.7 sec)
Forming perturbed density Hessian contributions  ... done   (      0.0 sec)
Making the perturbed densities                   ... done   (      0.0 sec)
2nd integral derivative contribs                 ... done   (    175.3 sec)
Exchange-correlation Hessian                     ... done   (     23.4 sec)
Dipol derivatives                                ... done   (      2.7 sec)

Total SCF Hessian time: 0 days 0 hours 18 min 47 sec 

Writing the Hessian file to the disk             ... done

           ************************************************************
           *              Shut down parallel processing               *
           ************************************************************

-----------------------
VIBRATIONAL FREQUENCIES
-----------------------

   0:         0.00 cm**-1
   1:         0.00 cm**-1
   2:         0.00 cm**-1
   3:         0.00 cm**-1
   4:         0.00 cm**-1
   5:         0.00 cm**-1
   6:        69.92 cm**-1
   7:        97.46 cm**-1
   8:       173.59 cm**-1
   9:       270.13 cm**-1
  10:       420.06 cm**-1
  11:       440.56 cm**-1
  12:       681.87 cm**-1
  13:       806.20 cm**-1
  14:       823.24 cm**-1
  15:       871.95 cm**-1
  16:       906.02 cm**-1
  17:       959.83 cm**-1
  18:       992.25 cm**-1
  19:      1040.73 cm**-1
  20:      1078.20 cm**-1
  21:      1139.22 cm**-1
  22:      1177.04 cm**-1
  23:      1187.81 cm**-1
  24:      1251.07 cm**-1
  25:      1261.84 cm**-1
  26:      1284.33 cm**-1
  27:      1294.22 cm**-1
  28:      1311.36 cm**-1
  29:      1319.26 cm**-1
  30:      1329.93 cm**-1
  31:      1418.36 cm**-1
  32:      1470.19 cm**-1
  33:      1479.25 cm**-1
  34:      1486.75 cm**-1
  35:      1491.41 cm**-1
  36:      1497.24 cm**-1
  37:      1652.25 cm**-1
  38:      3028.53 cm**-1
  39:      3046.22 cm**-1
  40:      3099.24 cm**-1
  41:      3121.57 cm**-1
  42:      3127.61 cm**-1
  43:      3180.28 cm**-1
  44:      3199.78 cm**-1
  45:      3204.26 cm**-1
  46:      3476.78 cm**-1
  47:      3541.15 cm**-1


------------
NORMAL MODES
------------

These modes are the cartesian displacements weighted by the diagonal matrix
M(i,i)=1/sqrt(m[i]) where m[i] is the mass of the displaced atom
Thus, these vectors are normalized but *not* orthogonal

                  0          1          2          3          4          5    
      0       0.000000   0.000000   0.000000   0.000000   0.000000   0.000000
      1       0.000000   0.000000   0.000000   0.000000   0.000000   0.000000
      2       0.000000   0.000000   0.000000   0.000000   0.000000   0.000000
      3       0.000000   0.000000   0.000000   0.000000   0.000000   0.000000
      4       0.000000   0.000000   0.000000   0.000000   0.000000   0.000000
      5       0.000000   0.000000   0.000000   0.000000   0.000000   0.000000
      6       0.000000   0.000000   0.000000   0.000000   0.000000   0.000000
      7       0.000000   0.000000   0.000000   0.000000   0.000000   0.000000
      8       0.000000   0.000000   0.000000   0.000000   0.000000   0.000000
      9       0.000000   0.000000   0.000000   0.000000   0.000000   0.000000
     10       0.000000   0.000000   0.000000   0.000000   0.000000   0.000000
     11       0.000000   0.000000   0.000000   0.000000   0.000000   0.000000
     12       0.000000   0.000000   0.000000   0.000000   0.000000   0.000000
     13       0.000000   0.000000   0.000000   0.000000   0.000000   0.000000
     14       0.000000   0.000000   0.000000   0.000000   0.000000   0.000000
     15       0.000000   0.000000   0.000000   0.000000   0.000000   0.000000
     16       0.000000   0.000000   0.000000   0.000000   0.000000   0.000000
     17       0.000000   0.000000   0.000000   0.000000   0.000000   0.000000
     18       0.000000   0.000000   0.000000   0.000000   0.000000   0.000000
     19       0.000000   0.000000   0.000000   0.000000   0.000000   0.000000
[...]
      8      -0.002994   0.163234  -0.002551  -0.061829   0.006744  -0.017482
      9       0.081326   0.028378  -0.029518   0.004143   0.030037  -0.010685
     10       0.022072   0.011256  -0.036909   0.005772   0.043437  -0.016158
     11      -0.100823  -0.056196  -0.015592   0.015018   0.018204  -0.004682
     12      -0.054127  -0.002525  -0.013304  -0.000381   0.003258  -0.001179
     13      -0.045761  -0.002229  -0.020624  -0.001611  -0.002425   0.001865
     14      -0.001083  -0.006875  -0.004374   0.004547   0.005022  -0.000986
     15       0.063278   0.007319  -0.026026  -0.008702  -0.027042   0.009669
     16      -0.021154  -0.001032  -0.046345  -0.017184  -0.043868   0.017426
     17      -0.014409  -0.046387   0.004271   0.010860   0.003646   0.001059
     18      -0.028569   0.276087  -0.043305   0.621363  -0.094768   0.134782
     19      -0.002309   0.039807   0.013186  -0.089953   0.280953   0.642528
     20       0.015244  -0.103208   0.015302  -0.198020   0.075014   0.078210
     21      -0.036508   0.165033  -0.004022  -0.052170   0.201871  -0.123644
     22       0.017731  -0.037099  -0.002920   0.124647  -0.024724   0.267409
     23      -0.003215  -0.125965   0.012265  -0.239616  -0.199623  -0.549178
     24      -0.014445   0.125788  -0.004674  -0.014566   0.143675  -0.099227
     25      -0.015123   0.141540  -0.008156   0.022945   0.128551  -0.125933
     26      -0.011229  -0.138557   0.044646  -0.613173   0.266991   0.213771
     27       0.094073   0.086992   0.010809  -0.034472   0.005793  -0.009114
     28       0.241299   0.080483   0.016019  -0.005664  -0.000845  -0.007847
     29       0.488568  -0.769148   0.009774   0.151005  -0.005516   0.023542
     30      -0.268841  -0.014122   0.394203  -0.083989  -0.344527   0.122994
     31       0.158351   0.068046   0.074276  -0.023225  -0.059285   0.018728
     32       0.415312   0.128332   0.254822  -0.059791  -0.241446   0.082460
     33      -0.164608  -0.117463   0.076139   0.017584  -0.069534   0.031792
     34      -0.028950   0.064500   0.486547  -0.102782  -0.442143   0.159625
     35       0.317625   0.228045   0.028651  -0.057283  -0.015731  -0.003911
     36       0.238161   0.029172  -0.010503   0.005464   0.050310  -0.020492
     37       0.315066  -0.006153  -0.017878  -0.004922  -0.021689   0.009358
     38       0.030682  -0.029630  -0.004187   0.001641  -0.026515   0.011966
     39       0.069903   0.010624   0.023140  -0.001779  -0.009456   0.004672
     40       0.127506   0.028469   0.036762   0.003496   0.015867  -0.004840
     41       0.059963  -0.034384   0.006517  -0.003387  -0.059087   0.026321
     42      -0.118117  -0.103893   0.426258   0.151991   0.333213  -0.127657
     43      -0.051220   0.048237   0.265861   0.065456   0.209489  -0.082228
     44       0.161177   0.210431   0.109706  -0.014675   0.104727  -0.043418
     45      -0.061850  -0.080041  -0.047995  -0.013269  -0.043803   0.014699
     46       0.133720  -0.003813   0.467860   0.148363   0.363727  -0.138535
     47       0.122546   0.088856  -0.178287  -0.052551  -0.145270   0.059841
                 36         37         38         39         40         41    
      0      -0.065723   0.000263  -0.046888   0.006149  -0.019744  -0.000423
      1      -0.017544   0.000447  -0.016194  -0.001288   0.089060   0.002977
      2       0.012123  -0.000969   0.000915  -0.001829   0.024444   0.000468
      3      -0.023692   0.001162  -0.001330   0.000757  -0.000254   0.000015
      4      -0.003732  -0.000230  -0.000581  -0.000732  -0.000249  -0.000031
      5       0.010395  -0.000974   0.001801   0.001076  -0.000156  -0.000018
      6       0.011077  -0.002844   0.007849   0.070587   0.003505  -0.000910
      7       0.008292  -0.000412  -0.004715  -0.044622  -0.002403  -0.000508
      8      -0.051503   0.007674  -0.000997   0.003915  -0.000018  -0.000618
      9      -0.016565   0.009746  -0.000341  -0.003774  -0.000611   0.012255
     10      -0.020782   0.009864   0.000081   0.002251  -0.000155   0.009126
     11       0.001292  -0.005268  -0.000088  -0.001965  -0.000270   0.003708
     12      -0.002209   0.027630   0.000000   0.000213   0.000058  -0.000538
     13       0.002198  -0.005040   0.000045  -0.000211  -0.000028  -0.001210
     14      -0.000672  -0.066594   0.000062   0.000277  -0.000028   0.000402
     15       0.012310  -0.003733   0.000051  -0.003025  -0.001087   0.018349
     16       0.015359  -0.010300   0.000522   0.002764  -0.001544   0.062324
     17       0.008512  -0.008875   0.000418  -0.002145  -0.000827   0.007341
     18       0.026565  -0.000335  -0.105941   0.011797  -0.022135   0.000864
     19       0.016624  -0.000127   0.042964  -0.006260   0.031233  -0.000089
     20      -0.004525  -0.001056  -0.280816   0.037407  -0.042979   0.003225
     21       0.586889  -0.003429   0.266799  -0.018582  -0.260117  -0.009711
     22      -0.233205   0.000388   0.610792  -0.046201  -0.554193  -0.020496
     23      -0.138316   0.003353   0.259150  -0.017745  -0.248514  -0.008829
     24       0.451589  -0.003380   0.420267  -0.075538   0.516575   0.014051
     25       0.464632  -0.003644  -0.452969   0.072788  -0.530304  -0.014526
     26       0.043764   0.001981  -0.011552   0.007833   0.003798   0.000096
     27      -0.022243  -0.000279  -0.093119  -0.827928  -0.038108   0.006239
     28      -0.007259   0.004328   0.058524   0.532975   0.023206  -0.004263
     29       0.199041  -0.026556  -0.002083  -0.069439   0.002534   0.000131
     30       0.135626  -0.045745   0.000059   0.003379  -0.000480   0.011432
     31       0.013710   0.007400  -0.002235  -0.021525   0.003171  -0.150053
     32       0.085467  -0.010435   0.000673   0.003232  -0.001153   0.045535
     33       0.047990  -0.010569   0.003244   0.023033   0.008440  -0.159679
     34       0.171274  -0.048784  -0.000457  -0.008539  -0.001782   0.039832
     35      -0.031298   0.003782   0.001353   0.019360   0.004587  -0.089342
     36      -0.025674  -0.527377   0.000506   0.001116   0.000022  -0.001412
     37       0.018147   0.260812  -0.000430  -0.000483  -0.000070  -0.000920
     38       0.019743   0.396284   0.000537  -0.001081   0.000086  -0.000919
     39       0.000841   0.134151  -0.000807  -0.001086  -0.000081  -0.000508
     40      -0.015367  -0.208816   0.000379   0.000959   0.000140   0.004015
     41       0.040406   0.647525   0.000161  -0.000967  -0.000183   0.000856
     42      -0.118766   0.037648   0.002258   0.015562  -0.008397   0.336939
     43      -0.095107   0.026626  -0.005142  -0.025922   0.014935  -0.573871
     44      -0.068240   0.018195   0.002273   0.016580  -0.006810   0.253881
     45       0.025762  -0.023970  -0.003522   0.019923   0.021211  -0.539756
     46      -0.129890   0.040294  -0.000857   0.004031   0.005663  -0.143110
     47       0.050729  -0.003620  -0.002104   0.008015   0.013511  -0.339797
                 42         43         44         45         46         47    
      0       0.000081  -0.044978  -0.000274   0.000350   0.000139   0.000026
      1      -0.000085   0.013362  -0.000506  -0.000319   0.000024  -0.000009
      2      -0.000131  -0.078910  -0.000272   0.000544  -0.000141   0.000017
      3       0.000078   0.000175   0.000178  -0.000027  -0.000054  -0.000018
      4       0.000005   0.000116  -0.000014  -0.000109  -0.000045   0.000019
      5      -0.000096  -0.000026   0.000122   0.000005   0.000272  -0.000021
      6      -0.000258  -0.000437  -0.002826  -0.003554  -0.000384  -0.000045
      7       0.001142  -0.000225   0.002142   0.001644   0.000158   0.000071
      8      -0.000981   0.000851   0.000224   0.000344   0.000337  -0.000311
      9      -0.050449  -0.000209   0.002761  -0.050079   0.000118  -0.000769
     10      -0.040631   0.000471  -0.004074   0.072180   0.000478   0.000610
     11      -0.014063  -0.000199   0.002273  -0.044342  -0.000454  -0.000681
     12       0.000801  -0.000010   0.002014   0.001856   0.022698  -0.063437
     13       0.000177   0.000017  -0.001042  -0.001865  -0.004336   0.046041
     14       0.001088   0.000009   0.001078   0.001090  -0.052900  -0.028174
     15       0.005554   0.000101  -0.077342  -0.004342  -0.000353  -0.000769
     16       0.016405  -0.000329   0.031394   0.001659  -0.000150   0.000622
     17       0.002504   0.000188  -0.052297  -0.003122  -0.000553  -0.000672
     18       0.000637   0.328877   0.000807  -0.002177   0.000217  -0.000094
     19      -0.000585  -0.147120  -0.000396   0.000827  -0.000078  -0.000007
     20       0.002379   0.882304   0.001772  -0.005507   0.000768  -0.000139
     21       0.000022   0.058614   0.002163   0.000529  -0.000312   0.000019
     22      -0.000108   0.160111   0.005612   0.000516  -0.000368  -0.000072
     23      -0.000150   0.057792   0.002560   0.000079  -0.000238  -0.000025
     24      -0.000688   0.148526  -0.000262  -0.001506  -0.000500  -0.000081
     25       0.001190  -0.169132   0.000521   0.002364   0.000370   0.000138
     26      -0.000474  -0.012399  -0.000508  -0.000522   0.000008  -0.000005
     27       0.010564   0.001930   0.031013   0.035466   0.000588   0.000177
     28      -0.006057  -0.001964  -0.022628  -0.019996  -0.000306  -0.000188
     29      -0.000182   0.001653  -0.000232   0.000196   0.000438   0.000338
     30      -0.043474   0.000177  -0.002528   0.036009   0.001640   0.000976
     31       0.608831  -0.005355   0.045796  -0.716997  -0.002154  -0.010510
     32      -0.183244   0.001611  -0.013141   0.215325   0.004237   0.002953
     33       0.621173   0.003062  -0.026950   0.560790   0.000355   0.013512
     34      -0.154305  -0.000544   0.006224  -0.125953   0.002814  -0.001588
     35       0.346482   0.001277  -0.014938   0.305073   0.004486   0.008342
     36      -0.000682  -0.000144  -0.013142  -0.006905   0.301837   0.310082
     37       0.002270   0.000161   0.002022   0.013897  -0.295304  -0.311237
     38      -0.001167  -0.000202  -0.010492  -0.009079   0.530665   0.585830
     39      -0.005115   0.000463  -0.004891  -0.009185  -0.611657   0.560595
     40       0.000684  -0.000261   0.007033   0.002049   0.354482  -0.320764
     41       0.000186  -0.000186   0.001700   0.000831   0.191981  -0.197318
     42       0.082463  -0.002150   0.310253   0.018810  -0.003020   0.005764
     43      -0.140437   0.003684  -0.548508  -0.033335  -0.002751  -0.013606
     44       0.061874  -0.001700   0.229735   0.013728   0.003610   0.005948
     45      -0.140199   0.000439   0.598358   0.029438   0.002015   0.009390
     46      -0.037962   0.000119   0.173986   0.008641  -0.001823   0.002354
     47      -0.088308   0.000410   0.383276   0.019638   0.004485   0.005544


-----------
IR SPECTRUM
-----------

 Mode    freq (cm**-1)   T**2         TX         TY         TZ
-------------------------------------------------------------------
   6:        69.92    5.804245  ( -1.118858   2.056497  -0.568526)
   7:        97.46    4.161488  (  0.765262   1.624037   0.968694)
   8:       173.59    0.681826  (  0.278705   0.711994   0.311792)
   9:       270.13    4.553032  ( -1.251726   1.363544  -1.061584)
  10:       420.06    5.114490  (  0.315208   1.714828   1.440312)
  11:       440.56    4.409886  (  0.808889  -0.676802  -1.815908)
  12:       681.87    2.880772  (  0.180876  -1.062160  -1.311438)
  13:       806.20    1.847093  (  0.786003   1.108720   0.005578)
  14:       823.24   10.873285  ( -2.712694   1.298765  -1.351956)
  15:       871.95    2.867615  ( -1.274707   0.975158  -0.540189)
  16:       906.02    2.448681  (  0.906879   1.272221   0.087775)
  17:       959.83   14.163689  ( -2.702320   0.586252   2.552933)
  18:       992.25   10.260656  ( -1.750902  -2.437776  -1.119038)
  19:      1040.73   27.840197  ( -4.977158  -1.432549   1.007917)
  20:      1078.20    6.150486  (  0.793611  -1.055013  -2.099432)
  21:      1139.22   12.034827  ( -2.263072  -0.844770   2.489919)
  22:      1177.04    3.189720  (  0.845283  -1.507294  -0.450867)
  23:      1187.81   68.874192  (  3.969073   2.151169  -6.963700)
  24:      1251.07   38.318638  ( -3.063281  -5.179584  -1.451502)
  25:      1261.84   77.266548  (  1.790763   1.252848  -8.514111)
  26:      1284.33    8.342342  (  1.367462   2.532715  -0.240297)
  27:      1294.22   29.572441  ( -0.614832   1.881915  -5.064861)
  28:      1311.36    1.680775  (  0.208350   0.408437  -1.212660)
  29:      1319.26   22.607237  (  2.938512   3.657336  -0.772190)
  30:      1329.93    9.177473  (  1.374310   2.527294   0.949490)
  31:      1418.36   48.428462  ( -2.466148   0.130566   6.506115)
  32:      1470.19   18.640994  (  2.324880   3.581005   0.642129)
  33:      1479.25   15.213727  (  0.817548  -0.366807  -3.796155)
  34:      1486.75   13.625890  ( -2.066415   2.019637   2.297147)
  35:      1491.41    9.943756  ( -0.000980   2.949234  -1.116143)
  36:      1497.24    6.508268  (  2.180413  -0.521376   1.217470)
  37:      1652.25   63.859208  ( -2.777312   0.305165   7.486830)
  38:      3028.53   25.702536  ( -4.290152  -2.136567   1.652941)
  39:      3046.22   16.126278  (  2.793751  -2.404538   1.593558)
  40:      3099.24   22.417671  ( -0.884605   4.438625   1.390593)
  41:      3121.57    0.041837  (  0.189340   0.072503  -0.027038)
  42:      3127.61    0.300286  (  0.484224  -0.081167   0.243363)
  43:      3180.28    2.929084  ( -0.602340   0.312053  -1.571271)
  44:      3199.78    0.730538  (  0.229903  -0.821435  -0.054103)
  45:      3204.26    1.617878  (  1.166649  -0.084841   0.499609)
  46:      3476.78   79.730646  ( -3.688493   0.658352   8.105075)
  47:      3541.15   95.475483  (  7.303659  -5.398040   3.604610)

The first frequency considered to be a vibration is 6
The total number of vibrations considered is 42


--------------------------
THERMOCHEMISTRY AT 298.15K
--------------------------

Temperature         ... 298.15 K
Pressure            ... 1.00 atm
Total Mass          ... 88.13 AMU

Throughout the following assumptions are being made:
  (1) The electronic state is orbitally nondegenerate
  (2) There are no thermally accessible electronically excited states
  (3) Hindered rotations indicated by low frequency modes) are not
      treated as such but are treated as vibrations and this may
      case some error
  (4) All equations used are the standard statistical mechanics
      equations for an ideal gas
  (5) All vibrations are strinctly harmonic


------------
INNER ENERGY
------------

The inner energy is: U= E(el) + E(ZPE) + E(vib) + E(rot) + E(trans)
    E(el)   - is the total energy from the electronic structure calculation
              = E(kin-el) + E(nuc-el) + E(el-el) + E(nuc-nuc)
    E(ZPE)  - the the zero temperature vibrational energy from the frequency calculation
    E(vib)  - the the finite temperature correction to E(ZPE) due to population
              of excietd vibrational states
    E(rot)  - is the rotational thermal energy
    E(trans)- is the translational thermal energy

Summary of contributions to the inner energy U:
Electronic energy                ...   -287.90696158 Eh
Zero point energy                ...      0.14741793 Eh      92.51 kcal/mol
Thermal vibrational correction   ...      0.00385314 Eh       2.42 kcal/mol
Thermal rotational correction    ...      0.00141627 Eh       0.89 kcal/mol
Thermal translational correction ...      0.00141627 Eh       0.89 kcal/mol
-----------------------------------------------------------------------
Total thermal energy                   -287.75285797 Eh


Summary of corrections to the electronic energy:
(perhaps to be used in another calculation)
Total thermal correction                  0.00668568 Eh       4.20 kcal/mol
Non-thermal (ZPE) correction              0.14741793 Eh      92.51 kcal/mol
-----------------------------------------------------------------------
Total correction                          0.15410361 Eh      96.70 kcal/mol


--------
ENTHALPY
--------

The enthalpy is H = U + kB*T
                kB is Boltzmann's constant
Total free energy                 ...   -287.75285797 Eh 
Thermal Enthalpy correction       ...      0.00094421 Eh       0.59 kcal/mol
-----------------------------------------------------------------------
Total Enthalpy                    ...   -287.75191376 Eh


-------
ENTROPY
-------

The entropy contributions are T*S = T*(S(el)+S(vib)+S(rot)+S(trans)
     S(el)   - electronic entropy
     S(vib)  - vibrational entropy
     S(rot)  - rotational entropy
     S(trans)- translational entropy
The entropies will be listed as mutliplied by the temperature to get
units of energy

Electronic entropy                ...      0.00000000 Eh      0.00 kcal/mol
Vibrational entropy               ...      0.00720322 Eh      4.52 kcal/mol
Rotational entropy                ...      0.01153740 Eh      7.24 kcal/mol
Translational entropy             ...      0.01869229 Eh     11.73 kcal/mol
-----------------------------------------------------------------------
Final entropy term                ...      0.03743291 Eh     23.49 kcal/mol


CAUTION: The rotational entropy is not quite correctly treated here
         because it includes a symmetry number that is not yet correctly
         implemented in ORCA!
For a nonlinear molecule the correct rotational entropy is:
    S(rot) = R*(ln(qrot/sn)+1.5)
    R    = 8.31441 J/mol/K = 1.987191683e-3 kcal/mol/K
    qrot = 135685.4256412
    sn is the rotational symmetry number. We have assumed 3 here
       if it is different for your molecule then you should correct
       the printed rotational entropy by manually evaluating the equation
       as given above

For convenience we print out the resulting values for sn=1 - 12:
 sn= 1  qrot/sn=  135685.4256 T*S(rot)=     7.89 kcal/mol T*S(tot)=    24.14 kcal/mol
 sn= 2  qrot/sn=   67842.7128 T*S(rot)=     7.48 kcal/mol T*S(tot)=    23.73 kcal/mol
 sn= 3  qrot/sn=   45228.4752 T*S(rot)=     7.24 kcal/mol T*S(tot)=    23.49 kcal/mol
 sn= 4  qrot/sn=   33921.3564 T*S(rot)=     7.07 kcal/mol T*S(tot)=    23.32 kcal/mol
 sn= 5  qrot/sn=   27137.0851 T*S(rot)=     6.94 kcal/mol T*S(tot)=    23.19 kcal/mol
 sn= 6  qrot/sn=   22614.2376 T*S(rot)=     6.83 kcal/mol T*S(tot)=    23.08 kcal/mol
 sn= 7  qrot/sn=   19383.6322 T*S(rot)=     6.74 kcal/mol T*S(tot)=    22.99 kcal/mol
 sn= 8  qrot/sn=   16960.6782 T*S(rot)=     6.66 kcal/mol T*S(tot)=    22.91 kcal/mol
 sn= 9  qrot/sn=   15076.1584 T*S(rot)=     6.59 kcal/mol T*S(tot)=    22.84 kcal/mol
 sn=10  qrot/sn=   13568.5426 T*S(rot)=     6.53 kcal/mol T*S(tot)=    22.78 kcal/mol
 sn=11  qrot/sn=   12335.0387 T*S(rot)=     6.47 kcal/mol T*S(tot)=    22.72 kcal/mol
 sn=12  qrot/sn=   11307.1188 T*S(rot)=     6.42 kcal/mol T*S(tot)=    22.67 kcal/mol


-------------------
GIBBS FREE ENTHALPY
-------------------

The Gibbs free enthalpy is G = H - T*S

Total enthalpy                    ...   -287.75191376 Eh 
Total entropy correction          ...     -0.03743291 Eh    -23.49 kcal/mol
-----------------------------------------------------------------------
Final Gibbs free enthalpy         ...   -287.78934667 Eh

For completeness - the Gibbs free enthalpy minus the electronic energy
G-E(el)                           ...      0.11761491 Eh     73.80 kcal/mol


Timings for individual modules:

Sum of individual times         ...     1285.522 sec (=  21.425 min)
GTO integral calculation        ...        6.000 sec (=   0.100 min)   0.5 %
SCF iterations                  ...       98.970 sec (=   1.650 min)   7.7 %
SCF Gradient evaluation         ...       51.718 sec (=   0.862 min)   4.0 %
Geometry relaxation             ...        0.188 sec (=   0.003 min)   0.0 %
Analytical frequency calculation...     1128.646 sec (=  18.811 min)  87.8 %
                             ****ORCA TERMINATED NORMALLY****
TOTAL RUN TIME: 0 days 0 hours 21 minutes 27 seconds 319 msec
