
                                 *****************
                                 * O   R   C   A *
                                 *****************

           --- An Ab Initio, DFT and Semiempirical electronic structure package ---

                  #######################################################
                  #                        -***-                        #
                  #  Department of molecular theory and spectroscopy    #
                  #              Directorship: Frank Neese              #
                  # Max Planck Institute for Chemical Energy Conversion #
                  #                  D-45470 Muelheim/Ruhr              #
                  #                       Germany                       #
                  #                                                     #
                  #                  All rights reserved                #
                  #                        -***-                        #
                  #######################################################


                         Program Version 3.0.3 - RELEASE   -


 With contributions from (in alphabetic order):
   Ute Becker             : Parallelization
   Dmytro Bykov           : SCF Hessian
   Dmitry Ganyushin       : Spin-Orbit,Spin-Spin,Magnetic field MRCI
   Andreas Hansen         : Spin unrestricted coupled pair/coupled cluster methods
   Dimitrios Liakos       : Extrapolation schemes; parallel MDCI
   Robert Izsak           : Overlap fitted RIJCOSX, COSX-SCS-MP3
   Christian Kollmar      : KDIIS, OOCD, Brueckner-CCSD(T), CCSD density
   Simone Kossmann        : Meta GGA functionals, TD-DFT gradient, OOMP2, MP2 Hessian
   Taras Petrenko         : DFT Hessian,TD-DFT gradient, ASA and ECA modules, normal mode analysis, Resonance Raman, ABS, FL, XAS/XES, NRVS
   Christoph Reimann      : Effective Core Potentials
   Michael Roemelt        : Restricted open shell CIS
   Christoph Riplinger    : Improved optimizer, TS searches, QM/MM, DLPNO-CCSD
   Barbara Sandhoefer     : DKH picture change effects
   Igor Schapiro          : Molecular dynamics
   Kantharuban Sivalingam : CASSCF convergence, NEVPT2
   Boris Wezisla          : Elementary symmetry handling
   Frank Wennmohs         : Technical directorship


 We gratefully acknowledge several colleagues who have allowed us to
 interface, adapt or use parts of their codes:
   Stefan Grimme, W. Hujo, H. Kruse, T. Risthaus : VdW corrections, initial TS optimization,
                                                   DFT functionals, gCP
   Ed Valeev                                     : LibInt (2-el integral package), F12 methods
   Garnet Chan, S. Sharma, R. Olivares           : DMRG
   Ulf Ekstrom                                   : XCFun DFT Library
   Mihaly Kallay                                 : mrcc  (arbitrary order and MRCC methods)
   Andreas Klamt, Michael Diedenhofen            : otool_cosmo (COSMO solvation model)
   Frank Weinhold                                : gennbo (NPA and NBO analysis)
   Christopher J. Cramer and Donald G. Truhlar   : smd solvation model


 Your calculation uses the libint2 library for the computation of 2-el integrals
 For citations please refer to: http://libint.valeyev.net

 This ORCA versions uses:
   CBLAS   interface :  Fast vector & matrix operations
   LAPACKE interface :  Fast linear algebra routines
   SCALAPACK package :  Parallel linear algebra routines


Your calculation utilizes the basis: Ahlrichs-TZV
Cite in your paper:
H - Kr: A. Schaefer, H. Horn and R. Ahlrichs, J. Chem. Phys. 97, 2571 (1992).

The def2-TZV basis will be loaded
Cite in your paper:
 	F. Weigend, R. Ahlrichs, Phys. Chem. Chem. Phys. 2005, 7, 3297.

================================================================================
                                        WARNINGS
                       Please study these warnings very carefully!
================================================================================
Now building the actual basis set
WARNING: Geometry optimizations can change the point-group symmetry!

WARNING: Geometry Optimization
  ===> : Switching off AutoStart
         For restart on a previous wavefunction, please use MOREAD


INFO   : the flag for use of LIBINT has been found!

================================================================================
                                       INPUT FILE
================================================================================
NAME = 1109_+.inp
|  1> ! NORI PBE0 def2-TZVP UseSym TightOPT Freq TightSCF Grid3 FinalGrid5 XYZFile
|  2> % pal
|  3>     nprocs 8
|  4> end
|  5> %method
|  6>     SymThresh 5.0e-2
|  7> end
|  8> % geom 
|  9>     MaxIter 10
| 10> end 
| 11> % maxcore 2000
| 12> % output
| 13>     printlevel mini
| 14>     print[ P_Basis ] 0
| 15>     print[ P_SCFInfo ] 1
| 16>     print[ P_SCFIterInfo ] 1
| 17>     print[ P_OrbEn ] 0
| 18>     print[ P_Cartesian ] 0
| 19> end
| 20> % elprop
| 21>     Dipole false
| 22> end
| 23> *xyz 1 1
| 24>  N        1.3145847943     0.0276400641     0.3925376788 
| 25>  C        2.7319884872     0.0750331721    -0.1544420568 
| 26>  C        3.0777750484    -1.3550232076    -0.5220990227 
| 27>  O        2.6940157241    -2.1205288322     0.5996849453 
| 28>  C        2.8338184242     1.1080804608    -1.2261024449 
| 29>  C        3.1359610857     0.8626523779    -2.4928222409 
| 30>  H        1.0841849903     0.8513853992     0.9478707069 
| 31>  H        1.2548380659    -0.8206991663     0.9754026778 
| 32>  H        0.6357314770    -0.0456876856    -0.3677030635 
| 33>  H        3.3391573273     0.3595708627     0.7106131179 
| 34>  H        4.1522149952    -1.4119141123    -0.7178009197 
| 35>  H        2.5396534617    -1.6724559267    -1.4237333059 
| 36>  H        2.9207976805    -3.0471694020     0.4800281059 
| 37>  H        2.6815490582     2.1350592507    -0.9011993197 
| 38>  H        3.3289068889    -0.1335854849    -2.8745267294 
| 39>  H        3.2215724914     1.6741922299    -3.2051881290 
| 40> *
| 41> 
| 42>                          ****END OF INPUT****
================================================================================

The point group is C1 - hence turning off symmetry
If this is a round-off problem, please increase the symmetry
        detection tolerance (%method SymThresh)


                       *****************************
                       * Geometry Optimization Run *
                       *****************************

Geometry optimization settings:
Update method            Update   .... BFGS
Choice of coordinates    CoordSys .... Redundant Internals
Initial Hessian          InHess   .... Almoef's Model

Convergence Tolerances:
Energy Change            TolE     ....  1.0000e-06 Eh
Max. Gradient            TolMAXG  ....  1.0000e-04 Eh/bohr
RMS Gradient             TolRMSG  ....  3.0000e-05 Eh/bohr
Max. Displacement        TolMAXD  ....  1.0000e-03 bohr
RMS Displacement         TolRMSD  ....  6.0000e-04 bohr

------------------------------------------------------------------------------
                        ORCA OPTIMIZATION COORDINATE SETUP
------------------------------------------------------------------------------

The optimization will be done in new redundant internal coordinates
Making redundant internal coordinates   ...  (new redundants) done
Evaluating the initial hessian          ...  (Almloef) done
Evaluating the coordinates              ...  done
Calculating the B-matrix                .... done
Calculating the G-matrix                .... done
Diagonalizing the G-matrix              .... done
Small eigenvalue found = 2.988e-02
The first mode is                       ....   29
The number of degrees of freedom        ....   42

    -----------------------------------------------------------------
                    Redundant Internal Coordinates


    -----------------------------------------------------------------
         Definition                    Initial Value    Approx d2E/dq
    -----------------------------------------------------------------
      1. B(C   1,N   0)                  1.5200         0.347084   
      2. B(C   2,C   1)                  1.5165         0.392555   
      3. B(O   3,C   2)                  1.4113         0.517545   
      4. B(C   4,C   1)                  1.4920         0.429568   
      5. B(C   5,C   4)                  1.3252         0.792781   
      6. B(H   6,N   0)                  1.0198         0.417374   
      7. B(H   7,N   0)                  1.0310         0.400567   
      8. B(H   8,N   0)                  1.0219         0.414270   
      9. B(H   9,C   1)                  1.0945         0.354192   
     10. B(H  10,C   2)                  1.0936         0.355371   
     11. B(H  11,C   2)                  1.0969         0.351032   
     12. B(H  12,O   3)                  0.9615         0.517170   
     13. B(H  13,C   4)                  1.0879         0.362946   
     14. B(H  14,C   5)                  1.0842         0.367901   
     15. B(H  15,C   5)                  1.0832         0.369166   
     16. A(H   6,N   0,H   7)          110.1015         0.297834   
     17. A(H   7,N   0,H   8)          108.8478         0.297482   
     18. A(C   1,N   0,H   7)          106.4470         0.321389   
     19. A(C   1,N   0,H   6)          112.4228         0.323561   
     20. A(H   6,N   0,H   8)          108.2403         0.299430   
     21. A(C   1,N   0,H   8)          110.7322         0.323165   
     22. A(C   4,C   1,H   9)          110.4773         0.330969   
     23. A(N   0,C   1,H   9)          103.9447         0.317672   
     24. A(N   0,C   1,C   4)          110.1028         0.365196   
     25. A(N   0,C   1,C   2)          105.6917         0.359620   
     26. A(C   2,C   1,C   4)          117.5956         0.375357   
     27. A(C   2,C   1,H   9)          108.0757         0.326084   
     28. A(C   1,C   2,H  10)          108.4490         0.326262   
     29. A(C   1,C   2,O   3)          104.8798         0.385233   
     30. A(O   3,C   2,H  11)          111.2838         0.338807   
     31. A(C   1,C   2,H  11)          111.1185         0.325603   
     32. A(O   3,C   2,H  10)          112.4074         0.339502   
     33. A(H  10,C   2,H  11)          108.6524         0.289078   
     34. A(C   2,O   3,H  12)          111.0827         0.358527   
     35. A(C   5,C   4,H  13)          119.4880         0.368507   
     36. A(C   1,C   4,C   5)          125.0240         0.424736   
     37. A(C   1,C   4,H  13)          115.4405         0.332309   
     38. A(H  14,C   5,H  15)          116.2843         0.292965   
     39. A(C   4,C   5,H  15)          120.5232         0.369584   
     40. A(C   4,C   5,H  14)          123.1820         0.369366   
     41. D(C   4,C   1,N   0,H   8)     50.2982         0.011115   
     42. D(H   9,C   1,N   0,H   7)    -73.2027         0.011115   
     43. D(C   2,C   1,N   0,H   7)     40.4897         0.011115   
     44. D(C   2,C   1,N   0,H   6)    161.1181         0.011115   
     45. D(C   4,C   1,N   0,H   7)    168.4558         0.011115   
     46. D(H   9,C   1,N   0,H   6)     47.4257         0.011115   
     47. D(H   9,C   1,N   0,H   8)    168.6396         0.011115   
     48. D(C   4,C   1,N   0,H   6)    -70.9157         0.011115   
     49. D(C   2,C   1,N   0,H   8)    -77.6680         0.011115   
     50. D(H  10,C   2,C   1,C   4)     68.6426         0.012244   
     51. D(O   3,C   2,C   1,H   9)     63.0740         0.012244   
     52. D(O   3,C   2,C   1,C   4)   -171.0643         0.012244   
     53. D(O   3,C   2,C   1,N   0)    -47.7195         0.012244   
     54. D(H  10,C   2,C   1,H   9)    -57.2192         0.012244   
     55. D(H  11,C   2,C   1,H   9)   -176.5782         0.012244   
     56. D(H  11,C   2,C   1,C   4)    -50.7165         0.012244   
     57. D(H  11,C   2,C   1,N   0)     72.6284         0.012244   
     58. D(H  10,C   2,C   1,N   0)   -168.0126         0.012244   
     59. D(H  12,O   3,C   2,H  11)     62.9004         0.021228   
     60. D(H  12,O   3,C   2,H  10)    -59.2330         0.021228   
     61. D(H  12,O   3,C   2,C   1)   -176.8615         0.021228   
     62. D(H  13,C   4,C   1,C   2)   -173.7546         0.013629   
     63. D(H  13,C   4,C   1,N   0)     65.1623         0.013629   
     64. D(C   5,C   4,C   1,H   9)    128.3867         0.013629   
     65. D(C   5,C   4,C   1,C   2)      3.7128         0.013629   
     66. D(H  13,C   4,C   1,H   9)    -49.0807         0.013629   
     67. D(C   5,C   4,C   1,N   0)   -117.3703         0.013629   
     68. D(H  15,C   5,C   4,H  13)     -0.6367         0.045329   
     69. D(H  15,C   5,C   4,C   1)   -178.0092         0.045329   
     70. D(H  14,C   5,C   4,H  13)    178.1337         0.045329   
     71. D(H  14,C   5,C   4,C   1)      0.7612         0.045329   
    -----------------------------------------------------------------

Number of atoms                         .... 16
Number of degrees of freedom            .... 71

         *************************************************************
         *                GEOMETRY OPTIMIZATION CYCLE   1            *
         *************************************************************


           ************************************************************
           *        Program running with 8 parallel MPI-processes     *
           *              working on a common directory               *
           ************************************************************
           ************************************************************
           *              Shut down parallel processing               *
           ************************************************************


           ************************************************************
           *        Program running with 8 parallel MPI-processes     *
           *              working on a common directory               *
           ************************************************************
------------
SCF SETTINGS
------------
Hamiltonian:
 Density Functional     Method          .... DFT(GTOs)
 Exchange Functional    Exchange        .... PBE
   PBE kappa parameter  XKappa          ....  0.804000
 Correlation Functional Correlation     .... PBE
 LDA part of GGA corr.  LDAOpt          .... PW91-LDA
 Gradients option       PostSCFGGA      .... off
 Hybrid DFT is turned on
   Fraction HF Exchange ScalHFX         ....  0.250000
   Scaling of DF-GGA-X  ScalDFX         ....  0.750000
   Scaling of DF-GGA-C  ScalDFC         ....  1.000000
   Scaling of DF-LDA-C  ScalLDAC        ....  1.000000
   Perturbative correction              ....  0.000000
   NL short-range parameter             ....  6.900000


General Settings:
 Integral files         IntName         .... 1109_+
 Hartree-Fock type      HFTyp           .... RHF
 Total Charge           Charge          ....    1
 Multiplicity           Mult            ....    1
 Number of Electrons    NEL             ....   48
 Basis Dimension        Dim             ....  246
 Nuclear Repulsion      ENuc            ....    255.7047391995 Eh

Convergence Acceleration:
 DIIS                   CNVDIIS         .... on
   Start iteration      DIISMaxIt       ....    12
   Startup error        DIISStart       ....  0.200000
   # of expansion vecs  DIISMaxEq       ....     5
   Bias factor          DIISBfac        ....   1.050
   Max. coefficient     DIISMaxC        ....  10.000
 Newton-Raphson         CNVNR           .... off
 SOSCF                  CNVSOSCF        .... on
   Start iteration      SOSCFMaxIt      ....   150
   Startup grad/error   SOSCFStart      ....  0.003300
 Level Shifting         CNVShift        .... on
   Level shift para.    LevelShift      ....    0.2500
   Turn off err/grad.   ShiftErr        ....    0.0010
 Zerner damping         CNVZerner       .... off
 Static damping         CNVDamp         .... on
   Fraction old density DampFac         ....    0.7000
   Max. Damping (<1)    DampMax         ....    0.9800
   Min. Damping (>=0)   DampMin         ....    0.0000
   Turn off err/grad.   DampErr         ....    0.1000
 Fernandez-Rico         CNVRico         .... off

SCF Procedure:
 Maximum # iterations   MaxIter         ....   125
 SCF integral mode      SCFMode         .... Direct
   Integral package                     .... LIBINT
 Reset frequeny         DirectResetFreq ....    20
 Integral Threshold     Thresh          ....  2.500e-11 Eh
 Primitive CutOff       TCut            ....  2.500e-12 Eh

Convergence Tolerance:
 Convergence Check Mode ConvCheckMode   .... Total+1el-Energy
 Energy Change          TolE            ....  1.000e-08 Eh
 1-El. energy change                    ....  1.000e-05 Eh
 Orbital Gradient       TolG            ....  1.000e-05
 Orbital Rotation angle TolX            ....  1.000e-05
 DIIS Error             TolErr          ....  5.000e-07


Diagonalization of the overlap matrix:
Smallest eigenvalue                        ... 1.199e-04
Time for diagonalization                   ...    0.018 sec
Threshold for overlap eigenvalues          ... 1.000e-08
Number of eigenvalues below threshold      ... 0
Time for construction of square roots      ...    0.011 sec
Total time needed                          ...    0.029 sec

-------------------
DFT GRID GENERATION
-------------------

General Integration Accuracy     IntAcc      ...  4.340
Radial Grid Type                 RadialGrid  ... Gauss-Chebyshev
Angular Grid (max. acc.)         AngularGrid ... Lebedev-194
Angular grid pruning method      GridPruning ... 3 (G Style)
Weight generation scheme         WeightScheme... Becke
Basis function cutoff            BFCut       ...    1.0000e-11
Integration weight cutoff        WCut        ...    1.0000e-14
Grids for H and He will be reduced by one unit

# of grid points (after initial pruning)     ...  35088 (   0.0 sec)
# of grid points (after weights+screening)   ...  32353 (   0.0 sec)
nearest neighbour list constructed           ...    0.0 sec
Grid point re-assignment to atoms done       ...    0.0 sec
Grid point division into batches done        ...    0.1 sec
Reduced shell lists constructed in    0.1 sec

Total number of grid points                  ...    32353
Total number of batches                      ...      514
Average number of points per batch           ...       62
Average number of grid points per atom       ...     2022
Average number of shells per batch           ...    90.12 (85.02%)
Average number of basis functions per batch  ...   219.39 (89.18%)
Average number of large shells per batch     ...    76.98 (85.42%)
Average number of large basis fcns per batch ...   186.95 (85.21%)
Maximum spatial batch extension              ...   2.14,  2.38,  2.90 au
Average spatial batch extension              ...   0.15,  0.14,  0.14 au

Time for grid setup =    0.189 sec

Loading Hartree-Fock densities                     ... done
Calculating cut-offs                               ... done
Setting up the integral package                    ... done
Initializing the effective Hamiltonian             ... done
Starting the Coulomb interaction                   ... done (   0.0 sec)
Reading the grid                                   ... done
Mapping shells                                     ... done
Starting the XC term evaluation                    ... done (   0.2 sec)
  promolecular density results
     # of electrons  =     48.995995194
     EX              =    -38.137973123
     EC              =     -1.611290977
     EX+EC           =    -39.749264100
Transforming the Hamiltonian                       ... done (   0.0 sec)
Diagonalizing the Hamiltonian                      ... done (   0.0 sec)
Back transforming the eigenvectors                 ... done (   0.0 sec)
Now organizing SCF variables                       ... done
--------------
SCF ITERATIONS
--------------
ITER       Energy         Delta-E        Max-DP      RMS-DP      [F,P]     Damp
               ***  Starting incremental Fock matrix formation  ***
  0   -287.7771371098   0.000000000000 0.05821203  0.00101862  0.2303933 0.7000
  1   -287.8447679162  -0.067630806379 0.05226317  0.00079580  0.0996086 0.7000
                               ***Turning on DIIS***
  2   -287.8735578317  -0.028789915531 0.07680888  0.00138367  0.0329566 0.0000
  3   -287.9177425255  -0.044184693777 0.04106066  0.00056703  0.0547707 0.0000
  4   -287.9273121510  -0.009569625508 0.00703068  0.00014410  0.0068401 0.0000
  5   -287.9276524697  -0.000340318658 0.00477577  0.00006920  0.0065287 0.0000
                      *** Initiating the SOSCF procedure ***
                           *** Shutting down DIIS ***
                      *** Re-Reading the Fockian *** 
                      *** Removing any level shift *** 
ITER      Energy       Delta-E        Grad      Rot      Max-DP    RMS-DP
  6   -287.92770270  -0.0000502319  0.000232  0.000232  0.001609  0.000033
               *** Restarting incremental Fock matrix formation ***
  7   -287.92770441  -0.0000017058  0.000105  0.000342  0.000354  0.000008
  8   -287.92770412   0.0000002876  0.000201  0.000293  0.000147  0.000003
  9   -287.92770474  -0.0000006242  0.000021  0.000056  0.000084  0.000001
 10   -287.92770474   0.0000000077  0.000026  0.000035  0.000045  0.000001
                  ***Gradient check signals convergence***
              ***Rediagonalizing the Fockian in SOSCF/NRSCF***

               *****************************************************
               *                     SUCCESS                       *
               *           SCF CONVERGED AFTER  11 CYCLES          *
               *****************************************************

Setting up the final grid:

General Integration Accuracy     IntAcc      ...  5.010
Radial Grid Type                 RadialGrid  ... Gauss-Chebyshev
Angular Grid (max. acc.)         AngularGrid ... Lebedev-434
Angular grid pruning method      GridPruning ... 3 (G Style)
Weight generation scheme         WeightScheme... Becke
Basis function cutoff            BFCut       ...    1.0000e-11
Integration weight cutoff        WCut        ...    1.0000e-14
Grids for H and He will be reduced by one unit

# of grid points (after initial pruning)     ... 131144 (   0.0 sec)
# of grid points (after weights+screening)   ... 119468 (   0.1 sec)
nearest neighbour list constructed           ...    0.0 sec
Grid point re-assignment to atoms done       ...    0.0 sec
Grid point division into batches done        ...    0.9 sec
Reduced shell lists constructed in    1.1 sec

Total number of grid points                  ...   119468
Total number of batches                      ...     1874
Average number of points per batch           ...       63
Average number of grid points per atom       ...     7467
Average number of shells per batch           ...    89.31 (84.25%)
Average number of basis functions per batch  ...   217.28 (88.33%)
Average number of large shells per batch     ...    75.17 (84.16%)
Average number of large basis fcns per batch ...   182.03 (83.78%)
Maximum spatial batch extension              ...   2.09,  2.49,  2.16 au
Average spatial batch extension              ...   0.10,  0.10,  0.10 au

Final grid set up in    1.2 sec
Final integration                            ... done (   0.7 sec)
Change in XC energy                          ...     0.000254927
Integrated number of electrons               ...    47.999981513
Previous integrated no of electrons          ...    47.999950745
Total Energy       :         -287.92744983 Eh           -7834.90423 eV
  Last Energy change         ...   -1.8416e-08  Tolerance :   1.0000e-08
  Last MAX-Density change    ...    8.4401e-06  Tolerance :   1.0000e-07
             **** THE GBW FILE WAS UPDATED (1109_+.gbw) ****
             **** DENSITY FILE WAS UPDATED (1109_+.scfp.tmp) ****
             **** ENERGY FILE WAS UPDATED (1109_+.en.tmp) ****
Total SCF time: 0 days 0 hours 0 min 49 sec 
           ************************************************************
           *              Shut down parallel processing               *
           ************************************************************

-------------------------   --------------------
FINAL SINGLE POINT ENERGY      -287.927449827597
-------------------------   --------------------



           ************************************************************
           *        Program running with 8 parallel MPI-processes     *
           *              working on a common directory               *
           ************************************************************
------------------------------------------------------------------------------
                         ORCA SCF GRADIENT CALCULATION
------------------------------------------------------------------------------

Gradient of the Kohn-Sham DFT energy:
Kohn-Sham wavefunction type      ... RKS
Hartree-Fock exchange scaling    ...    0.250
Number of operators              ...    1
Number of atoms                  ...   16
Basis set dimensions             ...  246
Integral neglect threshold       ... 2.5e-11
Integral primitive cutoff        ... 2.5e-12

Nuclear repulsion gradient       ... done
One Electron Gradient            ... done
Pre-screening matrix             ... done
Starting the two electron gradient:
Two electron gradient done
Exchange-correlation gradient    ... done

------------------
CARTESIAN GRADIENT
------------------

   1   N   :   -0.000131512    0.000068697   -0.000045793
   2   C   :    0.000010831    0.000099983   -0.000037672
   3   C   :   -0.000163064    0.000185741   -0.000236904
   4   O   :    0.000186061   -0.000061999    0.000042483
   5   C   :   -0.000093806    0.000041793    0.000202102
   6   C   :    0.000082374   -0.000041902    0.000092961
   7   H   :    0.000077495   -0.000083341   -0.000050800
   8   H   :   -0.000017943    0.000005975    0.000073240
   9   H   :    0.000036140   -0.000011639    0.000050191
  10   H   :    0.000002240   -0.000046902   -0.000019355
  11   H   :    0.000099183    0.000050600    0.000000976
  12   H   :   -0.000009331   -0.000120920    0.000012931
  13   H   :   -0.000091883   -0.000018689    0.000043927
  14   H   :    0.000078979   -0.000054655   -0.000080230
  15   H   :   -0.000005956    0.000014760    0.000008494
  16   H   :   -0.000059808   -0.000027501   -0.000056552

Norm of the cartesian gradient     ...    0.000592459
RMS gradient                       ...    0.000085514
MAX gradient                       ...    0.000236904

-------
TIMINGS
-------

Total SCF gradient time            ...       22.842 sec

One electron gradient       ....       0.166 sec  (  0.7%)
Prescreening matrices       ....       0.525 sec  (  2.3%)
Two electron gradient       ....      18.232 sec  ( 79.8%)
XC gradient                 ....       3.365 sec  ( 14.7%)
           ************************************************************
           *              Shut down parallel processing               *
           ************************************************************
------------------------------------------------------------------------------
                         ORCA GEOMETRY RELAXATION STEP
------------------------------------------------------------------------------

Reading the OPT-File                    .... done
Getting information on internals        .... done
Copying old internal coords+grads       .... done
Making the new internal coordinates     .... (new redundants).... done
Validating the new internal coordinates .... (new redundants).... done
Calculating the B-matrix                .... done
Calculating the G,G- and P matrices     .... done
Transforming gradient to internals      .... done
Projecting the internal gradient        .... done
Number of atoms                         ....  16
Number of internal coordinates          ....  71
Current Energy                          ....  -287.927449828 Eh
Current gradient norm                   ....     0.000592459 Eh/bohr
Maximum allowed component of the step   ....  0.300
Current trust radius                    ....  0.300
Evaluating the initial hessian          ....  (Almloef) done
Projecting the Hessian                  .... done
Forming the augmented Hessian           .... done
Diagonalizing the augmented Hessian     .... done
Last element of RFO vector              ....  0.999987727
Lowest eigenvalues of augmented Hessian:
 -0.000001137  0.011115033  0.012244349  0.013628854  0.021228077
Length of the computed step             ....  0.004954374
The final length of the internal step   ....  0.004954374
Converting the step to cartesian space:
 Initial RMS(Int)=    0.0005879760
Transforming coordinates:
 Iter   0:  RMS(Cart)=    0.0013352484 RMS(Int)=    0.0005879950
 Iter   1:  RMS(Cart)=    0.0000009359 RMS(Int)=    0.0000005392
 Iter   2:  RMS(Cart)=    0.0000000011 RMS(Int)=    0.0000000008
done
Storing new coordinates                 .... done

                                .--------------------.
          ----------------------|Geometry convergence|---------------------
          Item                value                 Tolerance   Converged
          -----------------------------------------------------------------
          RMS gradient        0.00005630            0.00003000      NO
          MAX gradient        0.00017031            0.00010000      NO
          RMS step            0.00058798            0.00060000      YES
          MAX step            0.00193296            0.00100000      NO
          ....................................................
          Max(Bonds)      0.0002      Max(Angles)    0.03
          Max(Dihed)        0.11      Max(Improp)    0.00
          -----------------------------------------------------------------

The optimization has not yet converged - more geometry cycles are needed


    ---------------------------------------------------------------------------
                         Redundant Internal Coordinates
                            (Angstroem and degrees)

        Definition                    Value    dE/dq     Step     New-Value
    ----------------------------------------------------------------------------
     1. B(C   1,N   0)                1.5200 -0.000036  0.0001    1.5201   
     2. B(C   2,C   1)                1.5165 -0.000093  0.0001    1.5166   
     3. B(O   3,C   2)                1.4113  0.000133 -0.0001    1.4111   
     4. B(C   4,C   1)                1.4920 -0.000170  0.0002    1.4922   
     5. B(C   5,C   4)                1.3252 -0.000056  0.0000    1.3252   
     6. B(H   6,N   0)                1.0198  0.000125 -0.0002    1.0197   
     7. B(H   7,N   0)                1.0310  0.000070 -0.0001    1.0309   
     8. B(H   8,N   0)                1.0219 -0.000024  0.0000    1.0219   
     9. B(H   9,C   1)                1.0945  0.000042 -0.0001    1.0944   
    10. B(H  10,C   2)                1.0936 -0.000112  0.0002    1.0938   
    11. B(H  11,C   2)                1.0969 -0.000120  0.0002    1.0971   
    12. B(H  12,O   3)                0.9615  0.000073 -0.0001    0.9614   
    13. B(H  13,C   4)                1.0879  0.000123 -0.0002    1.0877   
    14. B(H  14,C   5)                1.0842  0.000018 -0.0000    1.0841   
    15. B(H  15,C   5)                1.0832  0.000065 -0.0001    1.0831   
    16. A(H   6,N   0,H   7)          110.10  0.000021   -0.00    110.10   
    17. A(H   7,N   0,H   8)          108.85 -0.000022    0.01    108.85   
    18. A(C   1,N   0,H   7)          106.45 -0.000045    0.01    106.46   
    19. A(C   1,N   0,H   6)          112.42 -0.000020    0.00    112.43   
    20. A(H   6,N   0,H   8)          108.24 -0.000013   -0.00    108.24   
    21. A(C   1,N   0,H   8)          110.73  0.000080   -0.02    110.72   
    22. A(C   4,C   1,H   9)          110.48 -0.000027    0.02    110.49   
    23. A(N   0,C   1,H   9)          103.94 -0.000034    0.01    103.95   
    24. A(N   0,C   1,C   4)          110.10  0.000117   -0.03    110.07   
    25. A(N   0,C   1,C   2)          105.69 -0.000022   -0.00    105.69   
    26. A(C   2,C   1,C   4)          117.60 -0.000075    0.02    117.61   
    27. A(C   2,C   1,H   9)          108.08  0.000045   -0.00    108.07   
    28. A(C   1,C   2,H  10)          108.45 -0.000007    0.01    108.46   
    29. A(C   1,C   2,O   3)          104.88 -0.000091    0.02    104.89   
    30. A(O   3,C   2,H  11)          111.28  0.000050   -0.02    111.27   
    31. A(C   1,C   2,H  11)          111.12  0.000053   -0.01    111.10   
    32. A(O   3,C   2,H  10)          112.41  0.000011    0.01    112.41   
    33. A(H  10,C   2,H  11)          108.65 -0.000017    0.00    108.65   
    34. A(C   2,O   3,H  12)          111.08 -0.000057    0.01    111.09   
    35. A(C   5,C   4,H  13)          119.49  0.000038   -0.00    119.48   
    36. A(C   1,C   4,C   5)          125.02 -0.000073    0.01    125.03   
    37. A(C   1,C   4,H  13)          115.44  0.000034   -0.00    115.44   
    38. A(H  14,C   5,H  15)          116.28 -0.000013    0.00    116.29   
    39. A(C   4,C   5,H  15)          120.52  0.000023   -0.00    120.52   
    40. A(C   4,C   5,H  14)          123.18 -0.000011    0.00    123.18   
    41. D(C   4,C   1,N   0,H   8)     50.30  0.000002   -0.02     50.28   
    42. D(H   9,C   1,N   0,H   7)    -73.20 -0.000003   -0.01    -73.21   
    43. D(C   2,C   1,N   0,H   7)     40.49  0.000025   -0.01     40.48   
    44. D(C   2,C   1,N   0,H   6)    161.12  0.000009   -0.00    161.11   
    45. D(C   4,C   1,N   0,H   7)    168.46 -0.000009   -0.02    168.44   
    46. D(H   9,C   1,N   0,H   6)     47.43 -0.000019   -0.00     47.42   
    47. D(H   9,C   1,N   0,H   8)    168.64  0.000007   -0.02    168.62   
    48. D(C   4,C   1,N   0,H   6)    -70.92 -0.000025   -0.01    -70.92   
    49. D(C   2,C   1,N   0,H   8)    -77.67  0.000035   -0.02    -77.69   
    50. D(H  10,C   2,C   1,C   4)     68.64 -0.000038    0.05     68.69   
    51. D(O   3,C   2,C   1,H   9)     63.07 -0.000022    0.04     63.11   
    52. D(O   3,C   2,C   1,C   4)   -171.06 -0.000078    0.07   -171.00   
    53. D(O   3,C   2,C   1,N   0)    -47.72  0.000007    0.03    -47.69   
    54. D(H  10,C   2,C   1,H   9)    -57.22  0.000018    0.02    -57.20   
    55. D(H  11,C   2,C   1,H   9)   -176.58  0.000011    0.02   -176.56   
    56. D(H  11,C   2,C   1,C   4)    -50.72 -0.000045    0.05    -50.67   
    57. D(H  11,C   2,C   1,N   0)     72.63  0.000040    0.01     72.64   
    58. D(H  10,C   2,C   1,N   0)   -168.01  0.000047    0.01   -168.00   
    59. D(H  12,O   3,C   2,H  11)     62.90  0.000032   -0.09     62.81   
    60. D(H  12,O   3,C   2,H  10)    -59.23  0.000009   -0.09    -59.32   
    61. D(H  12,O   3,C   2,C   1)   -176.86  0.000068   -0.11   -176.97   
    62. D(H  13,C   4,C   1,C   2)   -173.75  0.000011    0.01   -173.74   
    63. D(H  13,C   4,C   1,N   0)     65.16 -0.000001    0.03     65.20   
    64. D(C   5,C   4,C   1,H   9)    128.39 -0.000036    0.09    128.47   
    65. D(C   5,C   4,C   1,C   2)      3.71 -0.000013    0.06      3.78   
    66. D(H  13,C   4,C   1,H   9)    -49.08 -0.000012    0.04    -49.04   
    67. D(C   5,C   4,C   1,N   0)   -117.37 -0.000025    0.09   -117.28   
    68. D(H  15,C   5,C   4,H  13)     -0.64  0.000035   -0.03     -0.67   
    69. D(H  15,C   5,C   4,C   1)   -178.01  0.000060   -0.09   -178.10   
    70. D(H  14,C   5,C   4,H  13)    178.13 -0.000006    0.02    178.15   
    71. D(H  14,C   5,C   4,C   1)      0.76  0.000019   -0.03      0.73   
    ----------------------------------------------------------------------------

         *************************************************************
         *                GEOMETRY OPTIMIZATION CYCLE   2            *
         *************************************************************
---------------------------------
CARTESIAN COORDINATES (ANGSTROEM)
---------------------------------
  N      1.589869    0.000059    0.112667
  C      0.173223   -0.488508   -0.142382
  C     -0.689267    0.189973    0.904497
  O      0.000230    0.000243    2.121000
  C     -0.188879   -0.283635   -1.575403
  C     -1.163498    0.502753   -2.008895
  H      2.292259   -0.603908   -0.313462
  H      1.712540    0.018811    1.136088
  H      1.717308    0.945887   -0.252594
  H      0.216003   -1.556459    0.093097
  H     -1.673600   -0.286902    0.904260
  H     -0.816041    1.256598    0.681073
  H     -0.497692    0.359834    2.860618
  H      0.384950   -0.868776   -2.290507
  H     -1.791446    1.089007   -1.347573
  H     -1.383426    0.573810   -3.067087

----------------------------
CARTESIAN COORDINATES (A.U.)
----------------------------
  NO LB      ZA    FRAG    MASS        X           Y           Z
   0 N     7.0000    0    14.007          3.004416484677863          0.000110720597684          0.212910115223702
   1 C     6.0000    0    12.011          0.327343409470066         -0.923145972766757         -0.269063695026307
   2 C     6.0000    0    12.011         -1.302526647948209          0.358996774347182          1.709251681210015
   3 O     8.0000    0    15.999          0.000433853510885          0.000458314941348          4.008109861031772
   4 C     6.0000    0    12.011         -0.356930383495453         -0.535993073439351         -2.977079776563645
   5 C     6.0000    0    12.011         -2.198692007952457          0.950065835033678         -3.796261203170599
   6 H     1.0000    0     1.008          4.331741301115090         -1.141220089312501         -0.592356616772191
   7 H     1.0000    0     1.008          3.236231797748623          0.035547523420112          2.146895581154658
   8 H     1.0000    0     1.008          3.245242742997419          1.787467749468292         -0.477332774457025
   9 H     1.0000    0     1.008          0.408185699215145         -2.941280819409154          0.175928112282675
  10 H     1.0000    0     1.008         -3.162645876753940         -0.542166419766754          1.708803760297544
  11 H     1.0000    0     1.008         -1.542093413551216          2.374626046341552          1.287042164834020
  12 H     1.0000    0     1.008         -0.940500679783471          0.679987726028481          5.405785150255441
  13 H     1.0000    0     1.008          0.727450101532888         -1.641747783350435         -4.328430873933298
  14 H     1.0000    0     1.008         -3.385341581336427          2.057924661923217         -2.546543100830625
  15 H     1.0000    0     1.008         -2.614297080345736          1.084343915621485         -5.795955357470512

--------------------------------
INTERNAL COORDINATES (ANGSTROEM)
--------------------------------
 N      0   0   0   0.000000     0.000     0.000
 C      1   0   0   1.520077     0.000     0.000
 C      2   1   0   1.516635   105.687     0.000
 O      3   2   1   1.411129   104.895   312.311
 C      2   1   3   1.492192   110.069   127.961
 C      5   2   1   1.325218   125.035   242.715
 H      1   2   3   1.019663   112.425   161.115
 H      1   2   3   1.030917   106.458    40.478
 H      1   2   3   1.021885   110.716   282.315
 H      2   1   3   1.094440   103.951   246.308
 H      3   2   1   1.093764   108.457   191.998
 H      3   2   1   1.097123   111.104    72.641
 H      4   3   2   0.961388   111.092   183.028
 H      5   2   1   1.087678   115.436    65.196
 H      6   5   2   1.084140   123.184     0.727
 H      6   5   2   1.083139   120.520   181.904

---------------------------
INTERNAL COORDINATES (A.U.)
---------------------------
 N      0   0   0   0.000000     0.000     0.000
 C      1   0   0   2.872529     0.000     0.000
 C      2   1   0   2.866025   105.687     0.000
 O      3   2   1   2.666647   104.895   312.311
 C      2   1   3   2.819835   110.069   127.961
 C      5   2   1   2.504299   125.035   242.715
 H      1   2   3   1.926884   112.425   161.115
 H      1   2   3   1.948151   106.458    40.478
 H      1   2   3   1.931082   110.716   282.315
 H      2   1   3   2.068193   103.951   246.308
 H      3   2   1   2.066915   108.457   191.998
 H      3   2   1   2.073262   111.104    72.641
 H      4   3   2   1.816759   111.092   183.028
 H      5   2   1   2.055413   115.436    65.196
 H      6   5   2   2.048727   123.184     0.727
 H      6   5   2   2.046835   120.520   181.904



           ************************************************************
           *        Program running with 8 parallel MPI-processes     *
           *              working on a common directory               *
           ************************************************************
           ************************************************************
           *              Shut down parallel processing               *
           ************************************************************


           ************************************************************
           *        Program running with 8 parallel MPI-processes     *
           *              working on a common directory               *
           ************************************************************

Diagonalization of the overlap matrix:
Smallest eigenvalue                        ... 1.201e-04
Time for diagonalization                   ...    0.017 sec
Threshold for overlap eigenvalues          ... 1.000e-08
Number of eigenvalues below threshold      ... 0
Time for construction of square roots      ...    0.011 sec
Total time needed                          ...    0.028 sec

-------------------
DFT GRID GENERATION
-------------------

General Integration Accuracy     IntAcc      ...  4.340
Radial Grid Type                 RadialGrid  ... Gauss-Chebyshev
Angular Grid (max. acc.)         AngularGrid ... Lebedev-194
Angular grid pruning method      GridPruning ... 3 (G Style)
Weight generation scheme         WeightScheme... Becke
Basis function cutoff            BFCut       ...    1.0000e-11
Integration weight cutoff        WCut        ...    1.0000e-14
Grids for H and He will be reduced by one unit

# of grid points (after initial pruning)     ...  35088 (   0.0 sec)
# of grid points (after weights+screening)   ...  32351 (   0.0 sec)
nearest neighbour list constructed           ...    0.0 sec
Grid point re-assignment to atoms done       ...    0.0 sec
Grid point division into batches done        ...    0.1 sec
Reduced shell lists constructed in    0.1 sec

Total number of grid points                  ...    32351
Total number of batches                      ...      514
Average number of points per batch           ...       62
Average number of grid points per atom       ...     2022
Average number of shells per batch           ...    90.08 (84.98%)
Average number of basis functions per batch  ...   219.26 (89.13%)
Average number of large shells per batch     ...    77.09 (85.58%)
Average number of large basis fcns per batch ...   187.18 (85.37%)
Maximum spatial batch extension              ...   2.15,  2.43,  2.90 au
Average spatial batch extension              ...   0.15,  0.14,  0.14 au

Time for grid setup =    0.192 sec

--------------
SCF ITERATIONS
--------------
ITER       Energy         Delta-E        Max-DP      RMS-DP      [F,P]     Damp
               ***  Starting incremental Fock matrix formation  ***
                      *** Initiating the SOSCF procedure ***
                      *** Re-Reading the Fockian *** 
                      *** Removing any level shift *** 
ITER      Energy       Delta-E        Grad      Rot      Max-DP    RMS-DP
  0   -287.92770280 -287.9277028009  0.000131  0.000131  0.000853  0.000011
               *** Restarting incremental Fock matrix formation ***
  1   -287.92770438  -0.0000015840  0.000057  0.000140  0.000213  0.000004
  2   -287.92770457  -0.0000001842  0.000012  0.000050  0.000101  0.000002
  3   -287.92770456   0.0000000041  0.000016  0.000019  0.000063  0.000001
                  ***Gradient check signals convergence***
              ***Rediagonalizing the Fockian in SOSCF/NRSCF***

               *****************************************************
               *                     SUCCESS                       *
               *           SCF CONVERGED AFTER   4 CYCLES          *
               *****************************************************

Setting up the final grid:

General Integration Accuracy     IntAcc      ...  5.010
Radial Grid Type                 RadialGrid  ... Gauss-Chebyshev
Angular Grid (max. acc.)         AngularGrid ... Lebedev-434
Angular grid pruning method      GridPruning ... 3 (G Style)
Weight generation scheme         WeightScheme... Becke
Basis function cutoff            BFCut       ...    1.0000e-11
Integration weight cutoff        WCut        ...    1.0000e-14
Grids for H and He will be reduced by one unit

# of grid points (after initial pruning)     ... 131144 (   0.0 sec)
# of grid points (after weights+screening)   ... 119471 (   0.1 sec)
nearest neighbour list constructed           ...    0.0 sec
Grid point re-assignment to atoms done       ...    0.0 sec
Grid point division into batches done        ...    0.9 sec
Reduced shell lists constructed in    1.1 sec

Total number of grid points                  ...   119471
Total number of batches                      ...     1876
Average number of points per batch           ...       63
Average number of grid points per atom       ...     7467
Average number of shells per batch           ...    89.27 (84.21%)
Average number of basis functions per batch  ...   217.21 (88.30%)
Average number of large shells per batch     ...    75.12 (84.16%)
Average number of large basis fcns per batch ...   181.89 (83.74%)
Maximum spatial batch extension              ...   2.10,  2.49,  2.48 au
Average spatial batch extension              ...   0.10,  0.10,  0.10 au

Final grid set up in    1.3 sec
Final integration                            ... done (   0.7 sec)
Change in XC energy                          ...     0.000253968
Integrated number of electrons               ...    47.999981799
Previous integrated no of electrons          ...    47.999944677
Total Energy       :         -287.92745061 Eh           -7834.90425 eV
  Last Energy change         ...   -1.8005e-08  Tolerance :   1.0000e-08
  Last MAX-Density change    ...    8.8795e-06  Tolerance :   1.0000e-07
             **** THE GBW FILE WAS UPDATED (1109_+.gbw) ****
             **** DENSITY FILE WAS UPDATED (1109_+.scfp.tmp) ****
             **** ENERGY FILE WAS UPDATED (1109_+.en.tmp) ****
Total SCF time: 0 days 0 hours 0 min 21 sec 
           ************************************************************
           *              Shut down parallel processing               *
           ************************************************************

-------------------------   --------------------
FINAL SINGLE POINT ENERGY      -287.927450614969
-------------------------   --------------------



           ************************************************************
           *        Program running with 8 parallel MPI-processes     *
           *              working on a common directory               *
           ************************************************************
------------------------------------------------------------------------------
                         ORCA SCF GRADIENT CALCULATION
------------------------------------------------------------------------------

Gradient of the Kohn-Sham DFT energy:
Kohn-Sham wavefunction type      ... RKS
Hartree-Fock exchange scaling    ...    0.250
Number of operators              ...    1
Number of atoms                  ...   16
Basis set dimensions             ...  246
Integral neglect threshold       ... 2.5e-11
Integral primitive cutoff        ... 2.5e-12

Nuclear repulsion gradient       ... done
One Electron Gradient            ... done
Pre-screening matrix             ... done
Starting the two electron gradient:
Two electron gradient done
Exchange-correlation gradient    ... done

------------------
CARTESIAN GRADIENT
------------------

   1   N   :   -0.000032220   -0.000018543   -0.000023313
   2   C   :    0.000022547    0.000042887   -0.000008000
   3   C   :   -0.000048885    0.000044867   -0.000110023
   4   O   :    0.000082610    0.000022986    0.000058078
   5   C   :   -0.000003514   -0.000033446    0.000041332
   6   C   :   -0.000005992   -0.000047127    0.000009465
   7   H   :   -0.000005267    0.000000078    0.000006573
   8   H   :   -0.000014111   -0.000003236    0.000007163
   9   H   :    0.000030708    0.000009621    0.000026289
  10   H   :   -0.000005774   -0.000009892   -0.000007422
  11   H   :    0.000002142    0.000010490    0.000010309
  12   H   :    0.000004939   -0.000010540    0.000007993
  13   H   :   -0.000034615   -0.000040723   -0.000004638
  14   H   :    0.000014987    0.000017852   -0.000010862
  15   H   :    0.000011057    0.000014597   -0.000006031
  16   H   :   -0.000018613    0.000000129    0.000003088

Norm of the cartesian gradient     ...    0.000209018
RMS gradient                       ...    0.000030169
MAX gradient                       ...    0.000110023

-------
TIMINGS
-------

Total SCF gradient time            ...       22.445 sec

One electron gradient       ....       0.093 sec  (  0.4%)
Prescreening matrices       ....       0.389 sec  (  1.7%)
Two electron gradient       ....      18.362 sec  ( 81.8%)
XC gradient                 ....       3.332 sec  ( 14.8%)
           ************************************************************
           *              Shut down parallel processing               *
           ************************************************************
------------------------------------------------------------------------------
                         ORCA GEOMETRY RELAXATION STEP
------------------------------------------------------------------------------

Reading the OPT-File                    .... done
Getting information on internals        .... done
Copying old internal coords+grads       .... done
Making the new internal coordinates     .... (new redundants).... done
Validating the new internal coordinates .... (new redundants).... done
Calculating the B-matrix                .... done
Calculating the G,G- and P matrices     .... done
Transforming gradient to internals      .... done
Projecting the internal gradient        .... done
Number of atoms                         ....  16
Number of internal coordinates          ....  71
Current Energy                          ....  -287.927450615 Eh
Current gradient norm                   ....     0.000209018 Eh/bohr
Maximum allowed component of the step   ....  0.300
Current trust radius                    ....  0.300
Updating the Hessian (BFGS)             .... done
Forming the augmented Hessian           .... done
Diagonalizing the augmented Hessian     .... done
Last element of RFO vector              ....  0.999969451
Lowest eigenvalues of augmented Hessian:
 -0.000000758  0.009422456  0.011312375  0.012591146  0.017416252
Length of the computed step             ....  0.007816739
The final length of the internal step   ....  0.007816739
Converting the step to cartesian space:
 Initial RMS(Int)=    0.0009276763
Transforming coordinates:
 Iter   0:  RMS(Cart)=    0.0018171644 RMS(Int)=    0.0009276893
 Iter   1:  RMS(Cart)=    0.0000016110 RMS(Int)=    0.0000010648
 Iter   2:  RMS(Cart)=    0.0000000032 RMS(Int)=    0.0000000026
done
Storing new coordinates                 .... done

                                .--------------------.
          ----------------------|Geometry convergence|---------------------
          Item                value                 Tolerance   Converged
          -----------------------------------------------------------------
          Energy change      -0.00000079            0.00000100      YES
          RMS gradient        0.00002185            0.00003000      YES
          MAX gradient        0.00007402            0.00010000      YES
          RMS step            0.00092768            0.00060000      NO
          MAX step            0.00320984            0.00100000      NO
          ....................................................
          Max(Bonds)      0.0002      Max(Angles)    0.04
          Max(Dihed)        0.18      Max(Improp)    0.00
          -----------------------------------------------------------------

       The energies and gradients are converged
       and the convergence on bond distances, angles, dihedrals and impropers
       is acceptable.
       Convergence will therefore be signaled now


                    ***********************HURRAY********************
                    ***        THE OPTIMIZATION HAS CONVERGED     ***
                    *************************************************


    ---------------------------------------------------------------------------
                         Redundant Internal Coordinates

                          --- Optimized Parameters ---  
                            (Angstroem and degrees)

        Definition                    OldVal   dE/dq     Step     FinalVal
    ----------------------------------------------------------------------------
     1. B(C   1,N   0)                1.5201 -0.000021  0.0001    1.5202   
     2. B(C   2,C   1)                1.5166 -0.000020  0.0001    1.5167   
     3. B(O   3,C   2)                1.4111  0.000074 -0.0002    1.4109   
     4. B(C   4,C   1)                1.4922 -0.000042  0.0002    1.4924   
     5. B(C   5,C   4)                1.3252 -0.000008  0.0000    1.3252   
     6. B(H   6,N   0)                1.0197 -0.000006 -0.0000    1.0196   
     7. B(H   7,N   0)                1.0309  0.000004 -0.0000    1.0309   
     8. B(H   8,N   0)                1.0219  0.000003  0.0000    1.0219   
     9. B(H   9,C   1)                1.0944  0.000008 -0.0000    1.0944   
    10. B(H  10,C   2)                1.0938 -0.000007  0.0001    1.0938   
    11. B(H  11,C   2)                1.0971 -0.000013  0.0001    1.0972   
    12. B(H  12,O   3)                0.9614 -0.000002 -0.0000    0.9614   
    13. B(H  13,C   4)                1.0877  0.000005 -0.0001    1.0876   
    14. B(H  14,C   5)                1.0841 -0.000000 -0.0000    1.0841   
    15. B(H  15,C   5)                1.0831  0.000000 -0.0000    1.0831   
    16. A(H   6,N   0,H   7)          110.10  0.000009    0.00    110.10   
    17. A(H   7,N   0,H   8)          108.85 -0.000014    0.01    108.86   
    18. A(C   1,N   0,H   7)          106.46 -0.000031    0.02    106.47   
    19. A(C   1,N   0,H   6)          112.43 -0.000008    0.00    112.43   
    20. A(H   6,N   0,H   8)          108.24 -0.000014   -0.00    108.23   
    21. A(C   1,N   0,H   8)          110.72  0.000058   -0.03    110.69   
    22. A(C   4,C   1,H   9)          110.49 -0.000020    0.02    110.51   
    23. A(N   0,C   1,H   9)          103.95 -0.000016    0.01    103.96   
    24. A(N   0,C   1,C   4)          110.07  0.000064   -0.04    110.02   
    25. A(N   0,C   1,C   2)          105.69 -0.000026   -0.00    105.69   
    26. A(C   2,C   1,C   4)          117.61 -0.000022    0.01    117.62   
    27. A(C   2,C   1,H   9)          108.07  0.000020    0.00    108.08   
    28. A(C   1,C   2,H  10)          108.46  0.000001    0.00    108.46   
    29. A(C   1,C   2,O   3)          104.89 -0.000029    0.01    104.91   
    30. A(O   3,C   2,H  11)          111.27  0.000006   -0.01    111.26   
    31. A(C   1,C   2,H  11)          111.10  0.000028   -0.02    111.09   
    32. A(O   3,C   2,H  10)          112.41 -0.000000    0.01    112.42   
    33. A(H  10,C   2,H  11)          108.65 -0.000005   -0.00    108.65   
    34. A(C   2,O   3,H  12)          111.09 -0.000026    0.01    111.10   
    35. A(C   5,C   4,H  13)          119.48  0.000008   -0.00    119.48   
    36. A(C   1,C   4,C   5)          125.03 -0.000034    0.01    125.05   
    37. A(C   1,C   4,H  13)          115.44  0.000026   -0.01    115.43   
    38. A(H  14,C   5,H  15)          116.29 -0.000014    0.01    116.29   
    39. A(C   4,C   5,H  15)          120.52  0.000020   -0.01    120.51   
    40. A(C   4,C   5,H  14)          123.18 -0.000006    0.00    123.19   
    41. D(C   4,C   1,N   0,H   8)     50.28  0.000009   -0.05     50.23   
    42. D(H   9,C   1,N   0,H   7)    -73.21  0.000004   -0.03    -73.24   
    43. D(C   2,C   1,N   0,H   7)     40.48  0.000009   -0.02     40.46   
    44. D(C   2,C   1,N   0,H   6)    161.11 -0.000006   -0.01    161.11   
    45. D(C   4,C   1,N   0,H   7)    168.44  0.000005   -0.04    168.40   
    46. D(H   9,C   1,N   0,H   6)     47.42 -0.000011   -0.01     47.41   
    47. D(H   9,C   1,N   0,H   8)    168.62  0.000008   -0.04    168.59   
    48. D(C   4,C   1,N   0,H   6)    -70.92 -0.000009   -0.02    -70.95   
    49. D(C   2,C   1,N   0,H   8)    -77.69  0.000013   -0.03    -77.71   
    50. D(H  10,C   2,C   1,C   4)     68.69 -0.000019    0.05     68.74   
    51. D(O   3,C   2,C   1,H   9)     63.11 -0.000007    0.03     63.14   
    52. D(O   3,C   2,C   1,C   4)   -171.00 -0.000034    0.07   -170.93   
    53. D(O   3,C   2,C   1,N   0)    -47.69  0.000014    0.02    -47.67   
    54. D(H  10,C   2,C   1,H   9)    -57.20  0.000008    0.01    -57.19   
    55. D(H  11,C   2,C   1,H   9)   -176.56 -0.000002    0.02   -176.54   
    56. D(H  11,C   2,C   1,C   4)    -50.67 -0.000030    0.06    -50.61   
    57. D(H  11,C   2,C   1,N   0)     72.64  0.000019    0.01     72.65   
    58. D(H  10,C   2,C   1,N   0)   -168.00  0.000029   -0.00   -168.00   
    59. D(H  12,O   3,C   2,H  11)     62.81  0.000022   -0.17     62.64   
    60. D(H  12,O   3,C   2,H  10)    -59.32  0.000025   -0.17    -59.49   
    61. D(H  12,O   3,C   2,C   1)   -176.97  0.000041   -0.18   -177.16   
    62. D(H  13,C   4,C   1,C   2)   -173.74 -0.000005    0.06   -173.68   
    63. D(H  13,C   4,C   1,N   0)     65.20 -0.000007    0.10     65.29   
    64. D(C   5,C   4,C   1,H   9)    128.47 -0.000021    0.14    128.62   
    65. D(C   5,C   4,C   1,C   2)      3.78 -0.000013    0.11      3.89   
    66. D(H  13,C   4,C   1,H   9)    -49.04 -0.000013    0.09    -48.95   
    67. D(C   5,C   4,C   1,N   0)   -117.28 -0.000015    0.14   -117.14   
    68. D(H  15,C   5,C   4,H  13)     -0.67  0.000006   -0.02     -0.69   
    69. D(H  15,C   5,C   4,C   1)   -178.10  0.000014   -0.07   -178.16   
    70. D(H  14,C   5,C   4,H  13)    178.15  0.000012   -0.02    178.14   
    71. D(H  14,C   5,C   4,C   1)      0.73  0.000020   -0.06      0.66   
    ----------------------------------------------------------------------------
                 *******************************************************
                 *** FINAL ENERGY EVALUATION AT THE STATIONARY POINT ***
                 ***               (AFTER    2 CYCLES)               ***
                 *******************************************************


           ************************************************************
           *        Program running with 8 parallel MPI-processes     *
           *              working on a common directory               *
           ************************************************************
           ************************************************************
           *              Shut down parallel processing               *
           ************************************************************


           ************************************************************
           *        Program running with 8 parallel MPI-processes     *
           *              working on a common directory               *
           ************************************************************
------------
SCF SETTINGS
------------
Hamiltonian:
 Density Functional     Method          .... DFT(GTOs)
 Exchange Functional    Exchange        .... PBE
   PBE kappa parameter  XKappa          ....  0.804000
 Correlation Functional Correlation     .... PBE
 LDA part of GGA corr.  LDAOpt          .... PW91-LDA
 Gradients option       PostSCFGGA      .... off
 Hybrid DFT is turned on
   Fraction HF Exchange ScalHFX         ....  0.250000
   Scaling of DF-GGA-X  ScalDFX         ....  0.750000
   Scaling of DF-GGA-C  ScalDFC         ....  1.000000
   Scaling of DF-LDA-C  ScalLDAC        ....  1.000000
   Perturbative correction              ....  0.000000
   NL short-range parameter             ....  6.900000


General Settings:
 Integral files         IntName         .... 1109_+
 Hartree-Fock type      HFTyp           .... RHF
 Total Charge           Charge          ....    1
 Multiplicity           Mult            ....    1
 Number of Electrons    NEL             ....   48
 Basis Dimension        Dim             ....  246
 Nuclear Repulsion      ENuc            ....    255.6945913260 Eh

Convergence Acceleration:
 DIIS                   CNVDIIS         .... on
   Start iteration      DIISMaxIt       ....    12
   Startup error        DIISStart       ....  0.200000
   # of expansion vecs  DIISMaxEq       ....     5
   Bias factor          DIISBfac        ....   1.050
   Max. coefficient     DIISMaxC        ....  10.000
 Newton-Raphson         CNVNR           .... off
 SOSCF                  CNVSOSCF        .... on
   Start iteration      SOSCFMaxIt      ....   150
   Startup grad/error   SOSCFStart      ....  0.003300
 Level Shifting         CNVShift        .... on
   Level shift para.    LevelShift      ....    0.2500
   Turn off err/grad.   ShiftErr        ....    0.0010
 Zerner damping         CNVZerner       .... off
 Static damping         CNVDamp         .... on
   Fraction old density DampFac         ....    0.7000
   Max. Damping (<1)    DampMax         ....    0.9800
   Min. Damping (>=0)   DampMin         ....    0.0000
   Turn off err/grad.   DampErr         ....    0.1000
 Fernandez-Rico         CNVRico         .... off

SCF Procedure:
 Maximum # iterations   MaxIter         ....   125
 SCF integral mode      SCFMode         .... Direct
   Integral package                     .... LIBINT
 Reset frequeny         DirectResetFreq ....    20
 Integral Threshold     Thresh          ....  2.500e-11 Eh
 Primitive CutOff       TCut            ....  2.500e-12 Eh

Convergence Tolerance:
 Convergence Check Mode ConvCheckMode   .... Total+1el-Energy
 Energy Change          TolE            ....  1.000e-08 Eh
 1-El. energy change                    ....  1.000e-05 Eh
 Orbital Gradient       TolG            ....  1.000e-05
 Orbital Rotation angle TolX            ....  1.000e-05
 DIIS Error             TolErr          ....  5.000e-07


Diagonalization of the overlap matrix:
Smallest eigenvalue                        ... 1.204e-04
Time for diagonalization                   ...    0.115 sec
Threshold for overlap eigenvalues          ... 1.000e-08
Number of eigenvalues below threshold      ... 0
Time for construction of square roots      ...    0.015 sec
Total time needed                          ...    0.130 sec

-------------------
DFT GRID GENERATION
-------------------

General Integration Accuracy     IntAcc      ...  4.340
Radial Grid Type                 RadialGrid  ... Gauss-Chebyshev
Angular Grid (max. acc.)         AngularGrid ... Lebedev-194
Angular grid pruning method      GridPruning ... 3 (G Style)
Weight generation scheme         WeightScheme... Becke
Basis function cutoff            BFCut       ...    1.0000e-11
Integration weight cutoff        WCut        ...    1.0000e-14
Grids for H and He will be reduced by one unit

# of grid points (after initial pruning)     ...  35088 (   0.0 sec)
# of grid points (after weights+screening)   ...  32346 (   0.0 sec)
nearest neighbour list constructed           ...    0.0 sec
Grid point re-assignment to atoms done       ...    0.0 sec
Grid point division into batches done        ...    0.1 sec
Reduced shell lists constructed in    0.1 sec

Total number of grid points                  ...    32346
Total number of batches                      ...      514
Average number of points per batch           ...       62
Average number of grid points per atom       ...     2022
Average number of shells per batch           ...    90.00 (84.91%)
Average number of basis functions per batch  ...   218.82 (88.95%)
Average number of large shells per batch     ...    77.08 (85.64%)
Average number of large basis fcns per batch ...   186.95 (85.44%)
Maximum spatial batch extension              ...   2.15,  2.43,  2.89 au
Average spatial batch extension              ...   0.15,  0.14,  0.14 au

Time for grid setup =    0.190 sec

--------------
SCF ITERATIONS
--------------
ITER       Energy         Delta-E        Max-DP      RMS-DP      [F,P]     Damp
               ***  Starting incremental Fock matrix formation  ***
                      *** Initiating the SOSCF procedure ***
                      *** Re-Reading the Fockian *** 
                      *** Removing any level shift *** 
ITER      Energy       Delta-E        Grad      Rot      Max-DP    RMS-DP
  0   -287.92770039 -287.9277003916  0.000216  0.000216  0.001405  0.000017
               *** Restarting incremental Fock matrix formation ***
  1   -287.92770353  -0.0000031405  0.000088  0.000218  0.000379  0.000006
  2   -287.92770391  -0.0000003743  0.000016  0.000056  0.000075  0.000002
  3   -287.92770391  -0.0000000022  0.000016  0.000010  0.000052  0.000001
                  ***Gradient check signals convergence***
              ***Rediagonalizing the Fockian in SOSCF/NRSCF***

               *****************************************************
               *                     SUCCESS                       *
               *           SCF CONVERGED AFTER   4 CYCLES          *
               *****************************************************

Setting up the final grid:

General Integration Accuracy     IntAcc      ...  5.010
Radial Grid Type                 RadialGrid  ... Gauss-Chebyshev
Angular Grid (max. acc.)         AngularGrid ... Lebedev-434
Angular grid pruning method      GridPruning ... 3 (G Style)
Weight generation scheme         WeightScheme... Becke
Basis function cutoff            BFCut       ...    1.0000e-11
Integration weight cutoff        WCut        ...    1.0000e-14
Grids for H and He will be reduced by one unit

# of grid points (after initial pruning)     ... 131144 (   0.0 sec)
# of grid points (after weights+screening)   ... 119470 (   0.1 sec)
nearest neighbour list constructed           ...    0.0 sec
Grid point re-assignment to atoms done       ...    0.0 sec
Grid point division into batches done        ...    0.9 sec
Reduced shell lists constructed in    1.1 sec

Total number of grid points                  ...   119470
Total number of batches                      ...     1876
Average number of points per batch           ...       63
Average number of grid points per atom       ...     7467
Average number of shells per batch           ...    89.25 (84.20%)
Average number of basis functions per batch  ...   217.08 (88.24%)
Average number of large shells per batch     ...    75.14 (84.18%)
Average number of large basis fcns per batch ...   181.81 (83.76%)
Maximum spatial batch extension              ...   2.08,  2.64,  2.74 au
Average spatial batch extension              ...   0.10,  0.10,  0.10 au

Final grid set up in    1.3 sec
Final integration                            ... done (   0.7 sec)
Change in XC energy                          ...     0.000252889
Integrated number of electrons               ...    47.999982046
Previous integrated no of electrons          ...    47.999936358
Total Energy       :         -287.92745103 Eh           -7834.90426 eV
  Last Energy change         ...   -1.2019e-08  Tolerance :   1.0000e-08
  Last MAX-Density change    ...    1.8885e-05  Tolerance :   1.0000e-07
             **** THE GBW FILE WAS UPDATED (1109_+.gbw) ****
             **** DENSITY FILE WAS UPDATED (1109_+.scfp.tmp) ****
             **** ENERGY FILE WAS UPDATED (1109_+.en.tmp) ****
Total SCF time: 0 days 0 hours 0 min 21 sec 
           ************************************************************
           *              Shut down parallel processing               *
           ************************************************************

-------------------------   --------------------
FINAL SINGLE POINT ENERGY      -287.927451031633
-------------------------   --------------------

                                *** OPTIMIZATION RUN DONE ***

                            ***************************************
                            *     ORCA property calculations      *
                            ***************************************

                                    ---------------------
                                    Active property flags
                                    ---------------------




           ************************************************************
           *        Program running with 8 parallel MPI-processes     *
           *              working on a common directory               *
           ************************************************************

-------------------------------------------------------------------------------
                               ORCA SCF HESSIAN
-------------------------------------------------------------------------------

Hessian of the Kohn-Sham DFT energy:
Kohn-Sham wavefunction type                      ... RKS
Hartree-Fock exchange scaling                    ...    0.250
Number of operators                              ...    1
Number of atoms                                  ...   16
Basis set dimensions                             ...  246
Integral neglect threshold                       ... 2.5e-11
Integral primitive cutoff                        ... 2.5e-12

Setting up DFT Hessian calculations              ... 
Electron density on the grid                     ... found on disk
Electron density on the final grid               ... found on disk
Building xc-kernel on the grid                   ... done   (      0.0 sec)
Building xc-kernel on the final grid             ... done   (      0.0 sec)
                                                     done   (      0.2 sec)

Nuclear repulsion Hessian                        ... done   (      0.0 sec)

----------------------------------------------
Forming right-hand sides of CP-SCF equations     ...
----------------------------------------------
One electron integral derivatives                ... done   (      0.3 sec)
Transforming the overlap derivative matrices     ... done   (      0.1 sec)
Making the Q(x) pseudodensities                  ... done   (      0.1 sec)
Adding the E*S(x)*S(y) terms to the Hessian      ... done   (      0.0 sec)
Calculating energy weighted overlap derivatives  ... done   (      0.0 sec)
Two electron integral derivatives                ... done   (     28.4 sec)
Exchange-correlation integral derivatives        ... done   (     42.6 sec)
tr(F(y)Q(x)) contribution to the Hessian         ... done   (      0.0 sec)
Response fock operator R(S(x))                   ... done   (     97.2 sec)
XC Response fock operator R(S(x))                ... done   (     17.2 sec)
tr(F(y)S(x)) contribution to the Hessian         ... done   (      0.0 sec)
Transforming and finalizing RHSs                 ... done   (      0.1 sec)

----------------------------------------------
Solving the CP-SCF equations                     ...
----------------------------------------------
     CP-SCF ITERATION   0: 
     CP-SCF ITERATION   1:      0.001036265
     CP-SCF ITERATION   2:      0.000085408
     CP-SCF ITERATION   3:      0.000006857
     CP-SCF ITERATION   4:      0.000000738
     CP-SCF ITERATION   5:      0.000000051
     CP-SCF ITERATION   6:      0.000000004

                                                 ... done   (    739.6 sec)
Forming perturbed density Hessian contributions  ... done   (      0.0 sec)
Making the perturbed densities                   ... done   (      0.0 sec)
2nd integral derivative contribs                 ... done   (    167.1 sec)
Exchange-correlation Hessian                     ... done   (     22.8 sec)
Dipol derivatives                                ... done   (      3.3 sec)

Total SCF Hessian time: 0 days 0 hours 18 min 39 sec 

Writing the Hessian file to the disk             ... done

           ************************************************************
           *              Shut down parallel processing               *
           ************************************************************

-----------------------
VIBRATIONAL FREQUENCIES
-----------------------

   0:         0.00 cm**-1
   1:         0.00 cm**-1
   2:         0.00 cm**-1
   3:         0.00 cm**-1
   4:         0.00 cm**-1
   5:         0.00 cm**-1
   6:        87.69 cm**-1
   7:       160.12 cm**-1
   8:       222.44 cm**-1
   9:       240.17 cm**-1
  10:       298.09 cm**-1
  11:       326.35 cm**-1
  12:       364.86 cm**-1
  13:       472.43 cm**-1
  14:       557.76 cm**-1
  15:       672.61 cm**-1
  16:       806.38 cm**-1
  17:       942.79 cm**-1
  18:       947.52 cm**-1
  19:      1003.57 cm**-1
  20:      1020.43 cm**-1
  21:      1030.27 cm**-1
  22:      1054.18 cm**-1
  23:      1111.39 cm**-1
  24:      1125.49 cm**-1
  25:      1197.23 cm**-1
  26:      1230.06 cm**-1
  27:      1282.13 cm**-1
  28:      1340.31 cm**-1
  29:      1366.79 cm**-1
  30:      1397.21 cm**-1
  31:      1449.23 cm**-1
  32:      1457.15 cm**-1
  33:      1477.24 cm**-1
  34:      1518.13 cm**-1
  35:      1638.51 cm**-1
  36:      1662.05 cm**-1
  37:      1725.67 cm**-1
  38:      3032.30 cm**-1
  39:      3082.80 cm**-1
  40:      3102.35 cm**-1
  41:      3163.57 cm**-1
  42:      3174.37 cm**-1
  43:      3261.90 cm**-1
  44:      3332.81 cm**-1
  45:      3472.33 cm**-1
  46:      3530.76 cm**-1
  47:      3868.15 cm**-1


------------
NORMAL MODES
------------

These modes are the cartesian displacements weighted by the diagonal matrix
M(i,i)=1/sqrt(m[i]) where m[i] is the mass of the displaced atom
Thus, these vectors are normalized but *not* orthogonal

                  0          1          2          3          4          5    
      0       0.000000   0.000000   0.000000   0.000000   0.000000   0.000000
      1       0.000000   0.000000   0.000000   0.000000   0.000000   0.000000
      2       0.000000   0.000000   0.000000   0.000000   0.000000   0.000000
      3       0.000000   0.000000   0.000000   0.000000   0.000000   0.000000
      4       0.000000   0.000000   0.000000   0.000000   0.000000   0.000000
      5       0.000000   0.000000   0.000000   0.000000   0.000000   0.000000
      6       0.000000   0.000000   0.000000   0.000000   0.000000   0.000000
      7       0.000000   0.000000   0.000000   0.000000   0.000000   0.000000
      8       0.000000   0.000000   0.000000   0.000000   0.000000   0.000000
      9       0.000000   0.000000   0.000000   0.000000   0.000000   0.000000
     10       0.000000   0.000000   0.000000   0.000000   0.000000   0.000000
     11       0.000000   0.000000   0.000000   0.000000   0.000000   0.000000
     12       0.000000   0.000000   0.000000   0.000000   0.000000   0.000000
     13       0.000000   0.000000   0.000000   0.000000   0.000000   0.000000
     14       0.000000   0.000000   0.000000   0.000000   0.000000   0.000000
     15       0.000000   0.000000   0.000000   0.000000   0.000000   0.000000
     16       0.000000   0.000000   0.000000   0.000000   0.000000   0.000000
     17       0.000000   0.000000   0.000000   0.000000   0.000000   0.000000
     18       0.000000   0.000000   0.000000   0.000000   0.000000   0.000000
     19       0.000000   0.000000   0.000000   0.000000   0.000000   0.000000
     20       0.000000   0.000000   0.000000   0.000000   0.000000   0.000000
     21       0.000000   0.000000   0.000000   0.000000   0.000000   0.000000
     22       0.000000   0.000000   0.000000   0.000000   0.000000   0.000000
     23       0.000000   0.000000   0.000000   0.000000   0.000000   0.000000
     24       0.000000   0.000000   0.000000   0.000000   0.000000   0.000000
     25       0.000000   0.000000   0.000000   0.000000   0.000000   0.000000
     26       0.000000   0.000000   0.000000   0.000000   0.000000   0.000000
     27       0.000000   0.000000   0.000000   0.000000   0.000000   0.000000
     28       0.000000   0.000000   0.000000   0.000000   0.000000   0.000000
     29       0.000000   0.000000   0.000000   0.000000   0.000000   0.000000
     30       0.000000   0.000000   0.000000   0.000000   0.000000   0.000000
     31       0.000000   0.000000   0.000000   0.000000   0.000000   0.000000
     32       0.000000   0.000000   0.000000   0.000000   0.000000   0.000000
     33       0.000000   0.000000   0.000000   0.000000   0.000000   0.000000
     34       0.000000   0.000000   0.000000   0.000000   0.000000   0.000000
     35       0.000000   0.000000   0.000000   0.000000   0.000000   0.000000
     36       0.000000   0.000000   0.000000   0.000000   0.000000   0.000000
     37       0.000000   0.000000   0.000000   0.000000   0.000000   0.000000
     38       0.000000   0.000000   0.000000   0.000000   0.000000   0.000000
     39       0.000000   0.000000   0.000000   0.000000   0.000000   0.000000
     40       0.000000   0.000000   0.000000   0.000000   0.000000   0.000000
     41       0.000000   0.000000   0.000000   0.000000   0.000000   0.000000
     42       0.000000   0.000000   0.000000   0.000000   0.000000   0.000000
     43       0.000000   0.000000   0.000000   0.000000   0.000000   0.000000
     44       0.000000   0.000000   0.000000   0.000000   0.000000   0.000000
     45       0.000000   0.000000   0.000000   0.000000   0.000000   0.000000
     46       0.000000   0.000000   0.000000   0.000000   0.000000   0.000000
     47       0.000000   0.000000   0.000000   0.000000   0.000000   0.000000
                  6          7          8          9         10         11    
      0       0.052952   0.026798  -0.093952   0.022195   0.021152   0.035746
      1      -0.103678   0.087642  -0.013289  -0.022739  -0.004368  -0.020570
      2       0.058860  -0.062567   0.019046  -0.024533   0.029028  -0.211520
      3       0.018079   0.005081  -0.111131   0.020456   0.006063  -0.011125
      4       0.050716   0.091409   0.051904  -0.018510   0.025828  -0.026516
      5      -0.023041   0.031321   0.028740   0.005907  -0.006270   0.055979
      6       0.040128   0.083969  -0.031544   0.006306  -0.000778  -0.012776
      7       0.094631   0.193789   0.013485  -0.001965   0.024841  -0.030527
      8      -0.033500   0.014089   0.131731  -0.023512  -0.013906   0.066946
      9      -0.033393  -0.090341   0.153970  -0.038058   0.028770  -0.093419
     10      -0.019347  -0.215217  -0.013542   0.061928   0.035636   0.034347
     11      -0.010263   0.047811   0.038031   0.000767  -0.031634   0.111221
     12       0.086189  -0.042295   0.015934   0.005507  -0.017130   0.043911
     13       0.150415  -0.090680   0.052905  -0.011397  -0.014844   0.046123
     14      -0.022929   0.021303  -0.007852   0.011573  -0.004535   0.053288
     15      -0.162580   0.011793   0.038354   0.002053  -0.014857   0.042856
     16      -0.135746  -0.062916  -0.046479   0.002004  -0.002121   0.003194
     17       0.018551  -0.047314  -0.231128   0.044472   0.009815  -0.010898
     18       0.011232  -0.004432  -0.143671  -0.020408   0.019634  -0.070595
     19      -0.159438   0.121976   0.092042   0.262543  -0.129479  -0.182214
     20       0.069200  -0.165548  -0.211254  -0.502142   0.204083  -0.163164
[...]
      8      -0.023067  -0.105910  -0.052632   0.090534   0.026116  -0.005461
      9      -0.012076  -0.025886  -0.008509   0.025445   0.008382   0.000450
     10       0.005992   0.014432   0.003413  -0.014118  -0.005499   0.001042
     11      -0.003680   0.001963   0.001414  -0.003385   0.002171   0.001282
     12       0.003810   0.009522  -0.062839  -0.024230  -0.006407   0.000966
     13      -0.020882  -0.012310   0.047095   0.019406   0.005474  -0.001170
     14      -0.009709  -0.028011  -0.079650  -0.024589  -0.005228   0.005744
     15      -0.013510   0.002827  -0.025810  -0.020309   0.000354  -0.000680
     16       0.012853  -0.001797   0.022829   0.016746   0.000257   0.000155
     17       0.002097   0.005363   0.005941   0.000317   0.001150  -0.001708
     18      -0.104307  -0.222745   0.125348  -0.295494  -0.038505  -0.004540
     19      -0.096465  -0.174911   0.069736  -0.193043  -0.055234  -0.394479
     20       0.026951  -0.205196   0.112208  -0.230423   0.017871   0.567248
     21      -0.037922  -0.499322   0.161322  -0.411865  -0.022774   0.328626
     22      -0.108590  -0.102176   0.051475  -0.151974  -0.018692  -0.400507
     23      -0.002741   0.090051  -0.038632   0.091928   0.000561  -0.073493
     24       0.178149  -0.357595   0.125582  -0.286201  -0.044446  -0.474694
     25       0.069909   0.007528   0.014008  -0.013014   0.015709   0.110673
     26       0.048049  -0.120038   0.092848  -0.185789   0.012920   0.040561
     27      -0.893136   0.200912   0.045514  -0.109210  -0.041702   0.047075
     28      -0.106686  -0.044555  -0.023845  -0.001750   0.002120   0.022777
     29      -0.113801  -0.263988  -0.035084   0.091926   0.038391   0.019093
     30      -0.027598  -0.000317  -0.002719   0.038038  -0.265007   0.009436
     31       0.037417   0.085354   0.019149  -0.145006   0.608052  -0.030807
     32       0.205547   0.288369   0.149848  -0.251228  -0.180934   0.020842
     33       0.040631  -0.067744  -0.015794   0.112848  -0.685841   0.035800
     34       0.005015   0.059231   0.031303  -0.027923  -0.133247   0.008680
     35       0.108626   0.406732   0.148647  -0.325120  -0.130752   0.002288
     36       0.037497   0.108015   0.068226  -0.186489  -0.019891   0.019568
     37      -0.016076  -0.051395  -0.020796   0.053942   0.007475   0.003202
     38       0.037373   0.118037   0.061817  -0.170427  -0.021604   0.011894
     39       0.080298  -0.054870   0.100679   0.093609   0.008567  -0.009067
     40      -0.053534   0.048047  -0.080332  -0.069878  -0.008577   0.000972
     41       0.069097  -0.131964   0.159789   0.138919   0.019435  -0.000527
     42      -0.068576  -0.024355   0.286466   0.128062   0.017584   0.000165
     43       0.033048   0.018757  -0.197653  -0.080005  -0.016210  -0.002727
     44      -0.062140  -0.036814   0.464146   0.213916   0.028754   0.002221
     45      -0.025266  -0.008646   0.500302   0.218493   0.026896  -0.001076
     46       0.045455  -0.000677  -0.434201  -0.192288  -0.022681   0.005087
     47       0.003053   0.006357  -0.120237  -0.057761  -0.004467  -0.001539
                 36         37         38         39         40         41    
      0      -0.025445   0.006450   0.000115   0.000739   0.000632  -0.000115
      1       0.031852   0.005401   0.000273  -0.001781   0.000747  -0.000039
      2       0.030978   0.010161  -0.000893   0.000233  -0.000480  -0.000557
      3      -0.006275   0.038627   0.001111  -0.003682   0.000252   0.000899
      4       0.009692  -0.032888  -0.009779   0.076167  -0.029153  -0.003782
      5       0.018177   0.032737   0.001729  -0.016040   0.006028   0.001692
      6       0.002738  -0.011596  -0.037023  -0.027148  -0.060003  -0.000603
      7      -0.004853   0.005072   0.058707  -0.015361  -0.063422  -0.000344
      8      -0.005567  -0.001895  -0.010994   0.000828   0.008208   0.000693
      9       0.001326   0.002001  -0.000413   0.000118   0.000329  -0.000054
     10       0.001562  -0.001030  -0.000257  -0.000081   0.000300   0.000033
     11       0.000775  -0.003121  -0.001433  -0.000146  -0.000336   0.000006
     12       0.003910  -0.297432  -0.000865   0.001578  -0.000796   0.043318
     13      -0.003341   0.237367   0.000661  -0.001802   0.001108  -0.043872
     14      -0.001268  -0.206845   0.000276  -0.002445   0.001222  -0.052341
     15      -0.002935   0.279455   0.000976  -0.000093  -0.000435   0.010710
     16       0.002220  -0.221909  -0.001015   0.000310   0.000452  -0.007833
     17      -0.001098   0.137905  -0.000824   0.000169   0.000178   0.011068
     18       0.248339  -0.015240   0.000060   0.001906   0.000633  -0.002924
     19       0.318400  -0.012214  -0.001776   0.004101  -0.000621   0.000431
     20       0.031831  -0.003177  -0.000188   0.003651  -0.001179  -0.002012
     21      -0.017643   0.009235   0.003952   0.004229   0.000755  -0.000603
     22      -0.616110  -0.048378   0.000804   0.001046  -0.002262  -0.000034
     23       0.035662   0.013620   0.008578   0.003200   0.000392   0.004916
     24       0.162185  -0.025885  -0.003738  -0.003158   0.003544   0.000733
     25      -0.241191  -0.016876  -0.003243   0.017838  -0.006346  -0.000328
     26      -0.603659  -0.049391   0.002931  -0.010146   0.002431  -0.000715
     27       0.014208   0.025768  -0.002758   0.036239  -0.014361  -0.003805
     28       0.005279  -0.002099   0.115743  -0.905460   0.335521   0.041507
     29      -0.012734   0.153304  -0.028009   0.196022  -0.069488  -0.012107
     30      -0.013624  -0.001082   0.348754   0.323717   0.760748   0.005616
     31       0.025974  -0.020035   0.190675   0.159207   0.367936   0.002319
     32       0.007250   0.014789  -0.006866  -0.003603  -0.018041  -0.000382
     33      -0.022429   0.023664   0.093379  -0.006473  -0.054548  -0.000705
     34      -0.009161   0.014396  -0.884663   0.025026   0.388106   0.004597
     35       0.001987   0.024220   0.175399  -0.008070  -0.071885  -0.001005
     36      -0.007148  -0.015952  -0.003986  -0.000212  -0.000460   0.000151
     37       0.002966   0.004131   0.000667  -0.000001   0.003011  -0.000360
     38      -0.006894  -0.017978  -0.005573  -0.000346  -0.001745  -0.000574
     39      -0.007223   0.083833   0.005406  -0.025047   0.012366  -0.496478
     40       0.008666  -0.047907  -0.004835   0.022306  -0.011570   0.509886
     41      -0.020879   0.403019  -0.003164   0.027144  -0.013286   0.624077
     42       0.002002  -0.086490  -0.010324   0.004387   0.003838  -0.099164
     43      -0.000368   0.011494   0.009423  -0.005683  -0.004255   0.092713
     44       0.006468  -0.500369   0.013010  -0.004915  -0.004163   0.108757
     45       0.004395  -0.227114   0.000806   0.001939   0.000118  -0.047679
     46      -0.006158   0.206038  -0.001290   0.000903  -0.000136   0.014564
     47      -0.003868   0.324273  -0.004028   0.004512   0.002643  -0.249938
                 42         43         44         45         46         47    
      0      -0.000100  -0.000062   0.019990   0.025087   0.037408  -0.000213
      1       0.000046  -0.000003   0.006842   0.035059  -0.068826   0.000013
      2      -0.000233  -0.000211   0.053120  -0.055117  -0.018203   0.000580
      3       0.000316   0.000306   0.002872   0.000362  -0.000070  -0.000009
      4      -0.001713  -0.000433   0.000920   0.001544  -0.001096   0.000100
      5       0.000995   0.000393   0.000772  -0.000382   0.000064   0.000285
      6      -0.000094   0.000106  -0.000462  -0.000092  -0.000468   0.001182
      7       0.001452  -0.000772   0.000380  -0.000444   0.000234  -0.000654
      8       0.000075   0.000172  -0.001074   0.000312   0.000090   0.000217
      9       0.000076  -0.000102   0.000047  -0.000048   0.000023   0.031096
     10      -0.000071   0.000081   0.000043  -0.000045  -0.000078  -0.022924
     11      -0.000037   0.000012   0.000673  -0.000224   0.000035  -0.049702
     12       0.019895   0.004546  -0.000366   0.000045  -0.000219   0.000002
     13      -0.018677  -0.004543  -0.000262  -0.000132   0.000275  -0.000024
     14      -0.012036  -0.005155  -0.000263   0.000366   0.000171  -0.000008
     15      -0.052573   0.017007   0.000093  -0.000039   0.000065   0.000032
     16       0.042232  -0.023788  -0.000072   0.000040  -0.000075  -0.000028
     17      -0.014367  -0.094707  -0.000429   0.000008  -0.000051  -0.000004
     18      -0.000811   0.000067  -0.144171  -0.304242  -0.590294   0.001378
     19       0.000140  -0.000337   0.133167   0.283288   0.518993  -0.001082
     20      -0.000511  -0.000485   0.091210   0.184544   0.369470  -0.000444
     21      -0.000688   0.000972  -0.144245   0.051852   0.017571   0.000397
     22      -0.000027   0.000032  -0.011521   0.009631  -0.010366  -0.001059
     23       0.000676   0.004066  -0.933214   0.281245   0.063677  -0.005593
     24       0.000078   0.000247  -0.021509  -0.089964   0.061622   0.000521
     25      -0.000554   0.000410  -0.221738  -0.780310   0.444456   0.001318
     26       0.000193  -0.000479   0.090533   0.298444  -0.182225  -0.000772
     27      -0.001877  -0.000178  -0.003371  -0.003478   0.000360  -0.000047
     28       0.020548   0.001762  -0.005726  -0.015229   0.013963   0.000148
     29      -0.006594  -0.000148  -0.000051   0.003294  -0.001509   0.000064
     30      -0.000750  -0.000323   0.005144  -0.002686  -0.000883   0.000921
     31       0.000139  -0.000608   0.001655   0.000158  -0.000044   0.000317
     32      -0.000306   0.000321   0.004829  -0.000526  -0.000185   0.003200
     33       0.002685  -0.001586   0.001907   0.000012  -0.000319   0.001252
     34      -0.017222   0.010054  -0.006442   0.003545  -0.000819  -0.001116
     35       0.004653  -0.002330   0.003076  -0.001757   0.000348   0.003476
     36      -0.000362   0.000386   0.005639  -0.003669  -0.001223  -0.508529
     37       0.000167  -0.000303  -0.001398   0.001196   0.000615   0.371500
     38      -0.000166  -0.000197  -0.001181   0.002225   0.000690   0.774181
     39      -0.148401  -0.046530  -0.001973   0.000882   0.001007  -0.000219
     40       0.151882   0.047582   0.002644  -0.000720  -0.001138   0.000325
     41       0.184613   0.056386   0.004012  -0.001193  -0.001227   0.000577
     42       0.424944  -0.369143  -0.001846  -0.000223   0.000464  -0.000567
     43      -0.399929   0.345468   0.001525  -0.000652   0.000010   0.000438
     44      -0.464122   0.388025   0.001719   0.000054  -0.000108   0.000121
     45       0.112092   0.156850   0.000445   0.000371  -0.000257  -0.000075
     46      -0.032224  -0.053377   0.000554   0.000622  -0.000148   0.000111
     47       0.587237   0.740768   0.002070  -0.000498   0.000200   0.000156


-----------
IR SPECTRUM
-----------

 Mode    freq (cm**-1)   T**2         TX         TY         TZ
-------------------------------------------------------------------
   6:        87.69    2.976945  (  0.876837  -1.137947   0.955604)
   7:       160.12   14.168696  (  1.728480   3.071319  -1.322141)
   8:       222.44   12.579305  ( -2.265570  -2.088530   1.756287)
   9:       240.17   14.316379  ( -0.064829  -3.470669  -1.505533)
  10:       298.09  117.702256  ( -4.380906  -9.514041   2.827178)
  11:       326.35   26.158078  (  1.261131  -1.798900  -4.618613)
  12:       364.86    8.175117  ( -2.487122   0.366986   1.361860)
  13:       472.43    5.363607  (  1.707915  -0.231715   1.546914)
  14:       557.76    4.456404  (  1.549530   0.904585   1.112244)
  15:       672.61   14.537212  (  2.672198   2.492792   1.087453)
  16:       806.38    2.201050  ( -1.452419  -0.257745  -0.158422)
  17:       942.79   10.235846  (  0.334969   1.933776   2.526688)
  18:       947.52   18.064972  ( -1.398969  -0.303805   4.001944)
  19:      1003.57   44.349405  ( -5.632387  -0.830374  -3.454867)
  20:      1020.43   42.892861  (  3.862684   5.246587   0.667722)
  21:      1030.27    8.628934  (  0.603817  -0.683150   2.792427)
  22:      1054.18   68.062248  (  1.248610  -1.795173   7.954909)
  23:      1111.39   36.358103  (  4.060963   0.200473   4.452695)
  24:      1125.49   27.658328  (  1.327713   1.743308  -4.780835)
  25:      1197.23   12.005687  ( -3.213113   0.695298   1.094602)
  26:      1230.06   38.892481  (  3.028889  -2.270054   4.956326)
  27:      1282.13    4.104027  ( -0.618285  -0.366289  -1.894092)
  28:      1340.31    4.335623  ( -1.121396   0.901313  -1.505234)
  29:      1366.79    5.749914  ( -1.897168   0.186899  -1.454557)
  30:      1397.21   13.518644  (  2.380583  -1.846943   2.107196)
  31:      1449.23   81.465833  ( -8.821480  -1.884668  -0.308794)
  32:      1457.15   61.175557  (  7.334894  -1.438208   2.303571)
  33:      1477.24   79.672468  ( -8.205765  -3.342578  -1.079379)
  34:      1518.13    4.964346  ( -1.599087   0.619986   1.422281)
  35:      1638.51   33.751362  (  0.492284  -5.232130   2.476658)
  36:      1662.05   34.118025  (  2.174154  -3.388850  -4.231640)
  37:      1725.67    0.339415  (  0.423148   0.336254   0.217471)
  38:      3032.30   18.291972  ( -1.388036   2.864531  -2.856534)
  39:      3082.80    1.648871  ( -0.863265   0.020910  -0.950372)
  40:      3102.35    3.591550  ( -0.841033  -1.652049  -0.393634)
  41:      3163.57    1.282625  (  0.591676  -0.416243  -0.871371)
  42:      3174.37    1.311805  (  0.128598   0.051859   1.136916)
  43:      3261.90    0.285725  (  0.411091  -0.247163   0.235880)
  44:      3332.81  112.295126  ( -1.019250  -0.641234 -10.528299)
  45:      3472.33   94.697607  ( -5.266707  -3.348826   7.466242)
  46:      3530.76   98.402194  ( -5.477506   8.010635   2.056416)
  47:      3868.15  138.159340  ( -3.785379   3.078759  10.693525)

The first frequency considered to be a vibration is 6
The total number of vibrations considered is 42


--------------------------
THERMOCHEMISTRY AT 298.15K
--------------------------

Temperature         ... 298.15 K
Pressure            ... 1.00 atm
Total Mass          ... 88.13 AMU

Throughout the following assumptions are being made:
  (1) The electronic state is orbitally nondegenerate
  (2) There are no thermally accessible electronically excited states
  (3) Hindered rotations indicated by low frequency modes) are not
      treated as such but are treated as vibrations and this may
      case some error
  (4) All equations used are the standard statistical mechanics
      equations for an ideal gas
  (5) All vibrations are strinctly harmonic


------------
INNER ENERGY
------------

The inner energy is: U= E(el) + E(ZPE) + E(vib) + E(rot) + E(trans)
    E(el)   - is the total energy from the electronic structure calculation
              = E(kin-el) + E(nuc-el) + E(el-el) + E(nuc-nuc)
    E(ZPE)  - the the zero temperature vibrational energy from the frequency calculation
    E(vib)  - the the finite temperature correction to E(ZPE) due to population
              of excietd vibrational states
    E(rot)  - is the rotational thermal energy
    E(trans)- is the translational thermal energy

Summary of contributions to the inner energy U:
Electronic energy                ...   -287.92745103 Eh
Zero point energy                ...      0.14627567 Eh      91.79 kcal/mol
Thermal vibrational correction   ...      0.00456697 Eh       2.87 kcal/mol
Thermal rotational correction    ...      0.00141627 Eh       0.89 kcal/mol
Thermal translational correction ...      0.00141627 Eh       0.89 kcal/mol
-----------------------------------------------------------------------
Total thermal energy                   -287.77377585 Eh


Summary of corrections to the electronic energy:
(perhaps to be used in another calculation)
Total thermal correction                  0.00739951 Eh       4.64 kcal/mol
Non-thermal (ZPE) correction              0.14627567 Eh      91.79 kcal/mol
-----------------------------------------------------------------------
Total correction                          0.15367518 Eh      96.43 kcal/mol


--------
ENTHALPY
--------

The enthalpy is H = U + kB*T
                kB is Boltzmann's constant
Total free energy                 ...   -287.77377585 Eh 
Thermal Enthalpy correction       ...      0.00094421 Eh       0.59 kcal/mol
-----------------------------------------------------------------------
Total Enthalpy                    ...   -287.77283164 Eh


-------
ENTROPY
-------

The entropy contributions are T*S = T*(S(el)+S(vib)+S(rot)+S(trans)
     S(el)   - electronic entropy
     S(vib)  - vibrational entropy
     S(rot)  - rotational entropy
     S(trans)- translational entropy
The entropies will be listed as mutliplied by the temperature to get
units of energy

Electronic entropy                ...      0.00000000 Eh      0.00 kcal/mol
Vibrational entropy               ...      0.00785549 Eh      4.93 kcal/mol
Rotational entropy                ...      0.01173730 Eh      7.37 kcal/mol
Translational entropy             ...      0.01869229 Eh     11.73 kcal/mol
-----------------------------------------------------------------------
Final entropy term                ...      0.03828508 Eh     24.02 kcal/mol


CAUTION: The rotational entropy is not quite correctly treated here
         because it includes a symmetry number that is not yet correctly
         implemented in ORCA!
For a nonlinear molecule the correct rotational entropy is:
    S(rot) = R*(ln(qrot/sn)+1.5)
    R    = 8.31441 J/mol/K = 1.987191683e-3 kcal/mol/K
    qrot = 167680.3730593
    sn is the rotational symmetry number. We have assumed 3 here
       if it is different for your molecule then you should correct
       the printed rotational entropy by manually evaluating the equation
       as given above

For convenience we print out the resulting values for sn=1 - 12:
 sn= 1  qrot/sn=  167680.3731 T*S(rot)=     8.02 kcal/mol T*S(tot)=    24.68 kcal/mol
 sn= 2  qrot/sn=   83840.1865 T*S(rot)=     7.61 kcal/mol T*S(tot)=    24.26 kcal/mol
 sn= 3  qrot/sn=   55893.4577 T*S(rot)=     7.37 kcal/mol T*S(tot)=    24.02 kcal/mol
 sn= 4  qrot/sn=   41920.0933 T*S(rot)=     7.19 kcal/mol T*S(tot)=    23.85 kcal/mol
 sn= 5  qrot/sn=   33536.0746 T*S(rot)=     7.06 kcal/mol T*S(tot)=    23.72 kcal/mol
 sn= 6  qrot/sn=   27946.7288 T*S(rot)=     6.95 kcal/mol T*S(tot)=    23.61 kcal/mol
 sn= 7  qrot/sn=   23954.3390 T*S(rot)=     6.86 kcal/mol T*S(tot)=    23.52 kcal/mol
 sn= 8  qrot/sn=   20960.0466 T*S(rot)=     6.78 kcal/mol T*S(tot)=    23.44 kcal/mol
 sn= 9  qrot/sn=   18631.1526 T*S(rot)=     6.71 kcal/mol T*S(tot)=    23.37 kcal/mol
 sn=10  qrot/sn=   16768.0373 T*S(rot)=     6.65 kcal/mol T*S(tot)=    23.31 kcal/mol
 sn=11  qrot/sn=   15243.6703 T*S(rot)=     6.60 kcal/mol T*S(tot)=    23.25 kcal/mol
 sn=12  qrot/sn=   13973.3644 T*S(rot)=     6.54 kcal/mol T*S(tot)=    23.20 kcal/mol


-------------------
GIBBS FREE ENTHALPY
-------------------

The Gibbs free enthalpy is G = H - T*S

Total enthalpy                    ...   -287.77283164 Eh 
Total entropy correction          ...     -0.03828508 Eh    -24.02 kcal/mol
-----------------------------------------------------------------------
Final Gibbs free enthalpy         ...   -287.81111672 Eh

For completeness - the Gibbs free enthalpy minus the electronic energy
G-E(el)                           ...      0.11633431 Eh     73.00 kcal/mol


Timings for individual modules:

Sum of individual times         ...     1273.238 sec (=  21.221 min)
GTO integral calculation        ...        6.375 sec (=   0.106 min)   0.5 %
SCF iterations                  ...       97.610 sec (=   1.627 min)   7.7 %
SCF Gradient evaluation         ...       48.174 sec (=   0.803 min)   3.8 %
Geometry relaxation             ...        0.161 sec (=   0.003 min)   0.0 %
Analytical frequency calculation...     1120.917 sec (=  18.682 min)  88.0 %
                             ****ORCA TERMINATED NORMALLY****
TOTAL RUN TIME: 0 days 0 hours 21 minutes 14 seconds 918 msec
