
                                 *****************
                                 * O   R   C   A *
                                 *****************

           --- An Ab Initio, DFT and Semiempirical electronic structure package ---

                  #######################################################
                  #                        -***-                        #
                  #  Department of molecular theory and spectroscopy    #
                  #              Directorship: Frank Neese              #
                  # Max Planck Institute for Chemical Energy Conversion #
                  #                  D-45470 Muelheim/Ruhr              #
                  #                       Germany                       #
                  #                                                     #
                  #                  All rights reserved                #
                  #                        -***-                        #
                  #######################################################


                         Program Version 3.0.3 - RELEASE   -


 With contributions from (in alphabetic order):
   Ute Becker             : Parallelization
   Dmytro Bykov           : SCF Hessian
   Dmitry Ganyushin       : Spin-Orbit,Spin-Spin,Magnetic field MRCI
   Andreas Hansen         : Spin unrestricted coupled pair/coupled cluster methods
   Dimitrios Liakos       : Extrapolation schemes; parallel MDCI
   Robert Izsak           : Overlap fitted RIJCOSX, COSX-SCS-MP3
   Christian Kollmar      : KDIIS, OOCD, Brueckner-CCSD(T), CCSD density
   Simone Kossmann        : Meta GGA functionals, TD-DFT gradient, OOMP2, MP2 Hessian
   Taras Petrenko         : DFT Hessian,TD-DFT gradient, ASA and ECA modules, normal mode analysis, Resonance Raman, ABS, FL, XAS/XES, NRVS
   Christoph Reimann      : Effective Core Potentials
   Michael Roemelt        : Restricted open shell CIS
   Christoph Riplinger    : Improved optimizer, TS searches, QM/MM, DLPNO-CCSD
   Barbara Sandhoefer     : DKH picture change effects
   Igor Schapiro          : Molecular dynamics
   Kantharuban Sivalingam : CASSCF convergence, NEVPT2
   Boris Wezisla          : Elementary symmetry handling
   Frank Wennmohs         : Technical directorship


 We gratefully acknowledge several colleagues who have allowed us to
 interface, adapt or use parts of their codes:
   Stefan Grimme, W. Hujo, H. Kruse, T. Risthaus : VdW corrections, initial TS optimization,
                                                   DFT functionals, gCP
   Ed Valeev                                     : LibInt (2-el integral package), F12 methods
   Garnet Chan, S. Sharma, R. Olivares           : DMRG
   Ulf Ekstrom                                   : XCFun DFT Library
   Mihaly Kallay                                 : mrcc  (arbitrary order and MRCC methods)
   Andreas Klamt, Michael Diedenhofen            : otool_cosmo (COSMO solvation model)
   Frank Weinhold                                : gennbo (NPA and NBO analysis)
   Christopher J. Cramer and Donald G. Truhlar   : smd solvation model


 Your calculation uses the libint2 library for the computation of 2-el integrals
 For citations please refer to: http://libint.valeyev.net

 This ORCA versions uses:
   CBLAS   interface :  Fast vector & matrix operations
   LAPACKE interface :  Fast linear algebra routines
   SCALAPACK package :  Parallel linear algebra routines


Your calculation utilizes the basis: Ahlrichs-TZV
Cite in your paper:
H - Kr: A. Schaefer, H. Horn and R. Ahlrichs, J. Chem. Phys. 97, 2571 (1992).

The def2-TZV basis will be loaded
Cite in your paper:
 	F. Weigend, R. Ahlrichs, Phys. Chem. Chem. Phys. 2005, 7, 3297.

================================================================================
                                        WARNINGS
                       Please study these warnings very carefully!
================================================================================
Now building the actual basis set
WARNING: Geometry optimizations can change the point-group symmetry!

WARNING: Geometry Optimization
  ===> : Switching off AutoStart
         For restart on a previous wavefunction, please use MOREAD


INFO   : the flag for use of LIBINT has been found!

================================================================================
                                       INPUT FILE
================================================================================
NAME = 1556_+.inp
|  1> ! NORI PBE0 def2-TZVP UseSym TightOPT Freq TightSCF Grid3 FinalGrid5 XYZFile
|  2> % pal
|  3>     nprocs 8
|  4> end
|  5> %method
|  6>     SymThresh 5.0e-2
|  7> end
|  8> % geom 
|  9>     MaxIter 10
| 10> end 
| 11> % maxcore 2000
| 12> % output
| 13>     printlevel mini
| 14>     print[ P_Basis ] 0
| 15>     print[ P_SCFInfo ] 1
| 16>     print[ P_SCFIterInfo ] 1
| 17>     print[ P_OrbEn ] 0
| 18>     print[ P_Cartesian ] 0
| 19> end
| 20> % elprop
| 21>     Dipole false
| 22> end
| 23> *xyz 1 1
| 24>  C       -0.3176066383    -0.9239706463     1.1995798358 
| 25>  C        0.7873953060    -1.3343583721     0.1965750953 
| 26>  C        0.8905082975    -0.1019680281    -0.7253140204 
| 27>  N        0.6573521364     0.9935110550     0.2913618596 
| 28>  C       -0.7025798169     0.4934729341     0.7263121824 
| 29>  C       -1.3484091388     0.3717037447    -0.6304760106 
| 30>  C       -0.4007237773     0.0170999199    -1.4936275597 
| 31>  H        0.0570845005    -0.9065679933     2.2245533569 
| 32>  H       -1.1885318021    -1.5762469431     1.1776172564 
| 33>  H        1.7364594532    -1.5248739551     0.7010972877 
| 34>  H        0.5393909346    -2.2199586031    -0.3847338086 
| 35>  H        1.8237039365     0.0283504390    -1.2676037398 
| 36>  H        0.6055259494     1.9160096389    -0.1435752769 
| 37>  H        1.3465592316     0.9994810690     1.0453526978 
| 38>  H       -1.1689552004     1.1469573406     1.4597060784 
| 39>  H       -2.4121217454     0.4598843087    -0.8013526062 
| 40>  H       -0.5090216263    -0.2527459086    -2.5345926281 
| 41> *
| 42> 
| 43>                          ****END OF INPUT****
================================================================================
---------------------
ASYMMETRIC UNIT IN Cs
---------------------
  #  AT     MASS              COORDS (A.U.)             BAS
   0 C   12.0110  -1.02544769  -2.27854851   1.46239220   0
   2 C   12.0110   0.53366770   0.09768496  -2.11270918   0
   3 N   14.0070   2.45687475   0.00000000   0.00000000   0
   5 C   12.0110  -0.93942714   2.38057881   1.25665825   0
   7 H    1.0080  -0.13452331  -3.97734997   2.22062880   0
   8 H    1.0080  -2.90567278  -2.14121894   2.28355816   0
  11 H    1.0080   1.41270806   0.15163756  -3.96903440   0
  12 H    1.0080   3.61274493   1.54534263   0.00000000   0
  13 H    1.0080   3.51180116  -1.61668901   0.00000000   0
  15 H    1.0080  -1.95114757   3.62286242   2.52363564   0


                       *****************************
                       * Geometry Optimization Run *
                       *****************************

Geometry optimization settings:
Update method            Update   .... BFGS
Choice of coordinates    CoordSys .... Redundant Internals
Initial Hessian          InHess   .... Almoef's Model

Convergence Tolerances:
Energy Change            TolE     ....  1.0000e-06 Eh
Max. Gradient            TolMAXG  ....  1.0000e-04 Eh/bohr
RMS Gradient             TolRMSG  ....  3.0000e-05 Eh/bohr
Max. Displacement        TolMAXD  ....  1.0000e-03 bohr
RMS Displacement         TolRMSD  ....  6.0000e-04 bohr

------------------------------------------------------------------------------
                        ORCA OPTIMIZATION COORDINATE SETUP
------------------------------------------------------------------------------

The optimization will be done in new redundant internal coordinates
Making redundant internal coordinates   ...  (new redundants) done
Evaluating the initial hessian          ...  (Almloef) done
Evaluating the coordinates              ...  done
Calculating the B-matrix                .... done
Calculating the G-matrix                .... done
Diagonalizing the G-matrix              .... done
The first mode is                       ....   70
The number of degrees of freedom        ....   45

    -----------------------------------------------------------------
                    Redundant Internal Coordinates


    -----------------------------------------------------------------
         Definition                    Initial Value    Approx d2E/dq
    -----------------------------------------------------------------
      1. B(C   1,C   0)                  1.5477         0.350019   
      2. B(C   2,C   1)                  1.5428         0.356382   
      3. B(N   3,C   2)                  1.5127         0.356512   
      4. B(C   4,N   3)                  1.5127         0.356512   
      5. B(C   4,C   0)                  1.5428         0.356382   
      6. B(C   5,C   4)                  1.5074         0.405905   
      7. B(C   6,C   2)                  1.5074         0.405905   
      8. B(C   6,C   5)                  1.3300         0.778899   
      9. B(H   7,C   0)                  1.0915         0.358100   
     10. B(H   8,C   0)                  1.0882         0.362551   
     11. B(H   9,C   1)                  1.0915         0.358100   
     12. B(H  10,C   1)                  1.0882         0.362551   
     13. B(H  11,C   2)                  1.0873         0.363728   
     14. B(H  12,N   3)                  1.0212         0.415258   
     15. B(H  13,N   3)                  1.0215         0.414749   
     16. B(H  14,C   4)                  1.0873         0.363728   
     17. B(H  15,C   5)                  1.0809         0.372369   
     18. B(H  16,C   6)                  1.0809         0.372369   
     19. A(C   1,C   0,H   7)          111.5677         0.320583   
     20. A(C   1,C   0,H   8)          113.5369         0.321232   
     21. A(C   4,C   0,H   8)          110.2103         0.322180   
     22. A(C   1,C   0,C   4)          102.8885         0.356469   
     23. A(H   7,C   0,H   8)          107.6467         0.290895   
     24. A(C   4,C   0,H   7)          110.9946         0.321529   
     25. A(H   9,C   1,H  10)          107.6467         0.290895   
     26. A(C   2,C   1,H  10)          110.2103         0.322180   
     27. A(C   2,C   1,H   9)          110.9946         0.321529   
     28. A(C   0,C   1,H  10)          113.5369         0.321232   
     29. A(C   0,C   1,H   9)          111.5677         0.320583   
     30. A(C   0,C   1,C   2)          102.8885         0.356469   
     31. A(C   6,C   2,H  11)          118.1455         0.329326   
     32. A(N   3,C   2,H  11)          112.3827         0.320451   
     33. A(C   1,C   2,H  11)          116.8537         0.322352   
     34. A(N   3,C   2,C   6)           98.8122         0.363336   
     35. A(C   1,C   2,N   3)           99.6176         0.355374   
     36. A(C   1,C   2,C   6)          108.0351         0.365589   
     37. A(C   4,N   3,H  13)          113.3451         0.324652   
     38. A(C   2,N   3,H  13)          113.3451         0.324652   
     39. A(C   4,N   3,H  12)          112.0613         0.324717   
     40. A(C   2,N   3,H  12)          112.0613         0.324717   
     41. A(C   2,N   3,C   4)           95.3031         0.353204   
     42. A(H  12,N   3,H  13)          110.0792         0.299243   
     43. A(C   0,C   4,H  14)          116.8537         0.322352   
     44. A(N   3,C   4,C   5)           98.8122         0.363336   
     45. A(C   0,C   4,C   5)          108.0351         0.365589   
     46. A(C   0,C   4,N   3)           99.6176         0.355374   
     47. A(C   5,C   4,H  14)          118.1455         0.329326   
     48. A(N   3,C   4,H  14)          112.3827         0.320451   
     49. A(C   4,C   5,C   6)          107.4887         0.419135   
     50. A(C   6,C   5,H  15)          128.3371         0.369011   
     51. A(C   4,C   5,H  15)          123.8593         0.330607   
     52. A(C   2,C   6,C   5)          107.4887         0.419135   
     53. A(C   5,C   6,H  16)          128.3371         0.369011   
     54. A(C   2,C   6,H  16)          123.8593         0.330607   
     55. D(H   9,C   1,C   0,H   8)   -121.8518         0.009871   
     56. D(C   2,C   1,C   0,H   8)    119.0926         0.009871   
     57. D(C   2,C   1,C   0,H   7)   -119.0555         0.009871   
     58. D(H  10,C   1,C   0,C   4)   -119.0926         0.009871   
     59. D(H  10,C   1,C   0,H   8)      0.0000         0.009871   
     60. D(H   9,C   1,C   0,H   7)     -0.0000         0.009871   
     61. D(H   9,C   1,C   0,C   4)    119.0555         0.009871   
     62. D(H  10,C   1,C   0,H   7)    121.8518         0.009871   
     63. D(C   2,C   1,C   0,C   4)      0.0000         0.009871   
     64. D(C   6,C   2,C   1,H   9)    174.0440         0.010204   
     65. D(N   3,C   2,C   1,H  10)    157.5079         0.010204   
     66. D(N   3,C   2,C   1,H   9)    -83.3302         0.010204   
     67. D(N   3,C   2,C   1,C   0)     36.1238         0.010204   
     68. D(H  11,C   2,C   1,H  10)    -81.2471         0.010204   
     69. D(H  11,C   2,C   1,H   9)     37.9148         0.010204   
     70. D(H  11,C   2,C   1,C   0)    157.3688         0.010204   
     71. D(C   6,C   2,C   1,H  10)     54.8821         0.010204   
     72. D(C   6,C   2,C   1,C   0)    -66.5020         0.010204   
     73. D(H  13,N   3,C   2,C   6)    169.8356         0.011695   
     74. D(H  13,N   3,C   2,C   1)     59.7127         0.011695   
     75. D(H  12,N   3,C   2,H  11)     60.6292         0.011695   
     76. D(H  12,N   3,C   2,C   6)    -64.8271         0.011695   
     77. D(C   4,N   3,C   2,C   6)     51.5726         0.011695   
     78. D(C   4,N   3,C   2,C   1)    -58.5503         0.011695   
     79. D(H  12,N   3,C   2,C   1)   -174.9500         0.011695   
     80. D(H  13,N   3,C   2,H  11)    -64.7081         0.011695   
     81. D(C   4,N   3,C   2,H  11)    177.0289         0.011695   
     82. D(C   5,C   4,C   0,C   1)     66.5020         0.010204   
     83. D(N   3,C   4,C   0,H   7)     83.3302         0.010204   
     84. D(N   3,C   4,C   0,C   1)    -36.1238         0.010204   
     85. D(N   3,C   4,C   0,H   8)   -157.5079         0.010204   
     86. D(H  14,C   4,N   3,H  13)     64.7081         0.011695   
     87. D(H  14,C   4,N   3,H  12)    -60.6292         0.011695   
     88. D(C   5,C   4,N   3,H  13)   -169.8356         0.011695   
     89. D(C   5,C   4,N   3,H  12)     64.8271         0.011695   
     90. D(C   5,C   4,N   3,C   2)    -51.5726         0.011695   
     91. D(C   0,C   4,N   3,H  13)    -59.7127         0.011695   
     92. D(C   0,C   4,N   3,H  12)    174.9500         0.011695   
     93. D(C   0,C   4,N   3,C   2)     58.5503         0.011695   
     94. D(H  14,C   4,C   0,H   8)     81.2471         0.010204   
     95. D(H  14,C   4,C   0,H   7)    -37.9148         0.010204   
     96. D(H  14,C   4,N   3,C   2)   -177.0289         0.011695   
     97. D(H  14,C   4,C   0,C   1)   -157.3688         0.010204   
     98. D(C   5,C   4,C   0,H   8)    -54.8821         0.010204   
     99. D(C   5,C   4,C   0,H   7)   -174.0440         0.010204   
    100. D(H  15,C   5,C   4,H  14)    -31.0517         0.012212   
    101. D(H  15,C   5,C   4,N   3)   -152.3806         0.012212   
    102. D(H  15,C   5,C   4,C   0)    104.4236         0.012212   
    103. D(C   6,C   5,C   4,H  14)    154.9226         0.012212   
    104. D(C   6,C   5,C   4,N   3)     33.5938         0.012212   
    105. D(C   6,C   5,C   4,C   0)    -69.6021         0.012212   
    106. D(H  16,C   6,C   5,H  15)      0.0000         0.043594   
    107. D(H  16,C   6,C   5,C   4)    173.6737         0.043594   
    108. D(C   2,C   6,C   5,C   4)     -0.0000         0.043594   
    109. D(H  16,C   6,C   2,H  11)     31.0517         0.012212   
    110. D(H  16,C   6,C   2,N   3)    152.3806         0.012212   
    111. D(H  16,C   6,C   2,C   1)   -104.4236         0.012212   
    112. D(C   2,C   6,C   5,H  15)   -173.6737         0.043594   
    113. D(C   5,C   6,C   2,H  11)   -154.9226         0.012212   
    114. D(C   5,C   6,C   2,N   3)    -33.5938         0.012212   
    115. D(C   5,C   6,C   2,C   1)     69.6021         0.012212   
    -----------------------------------------------------------------

Number of atoms                         .... 17
Number of degrees of freedom            .... 115

         *************************************************************
         *                GEOMETRY OPTIMIZATION CYCLE   1            *
         *************************************************************


           ************************************************************
           *        Program running with 8 parallel MPI-processes     *
           *              working on a common directory               *
           ************************************************************
           ************************************************************
           *              Shut down parallel processing               *
           ************************************************************


           ************************************************************
           *        Program running with 8 parallel MPI-processes     *
           *              working on a common directory               *
           ************************************************************
------------
SCF SETTINGS
------------
Hamiltonian:
 Density Functional     Method          .... DFT(GTOs)
 Exchange Functional    Exchange        .... PBE
   PBE kappa parameter  XKappa          ....  0.804000
 Correlation Functional Correlation     .... PBE
 LDA part of GGA corr.  LDAOpt          .... PW91-LDA
 Gradients option       PostSCFGGA      .... off
 Hybrid DFT is turned on
   Fraction HF Exchange ScalHFX         ....  0.250000
   Scaling of DF-GGA-X  ScalDFX         ....  0.750000
   Scaling of DF-GGA-C  ScalDFC         ....  1.000000
   Scaling of DF-LDA-C  ScalLDAC        ....  1.000000
   Perturbative correction              ....  0.000000
   NL short-range parameter             ....  6.900000


General Settings:
 Integral files         IntName         .... 1556_+
 Hartree-Fock type      HFTyp           .... RHF
 Total Charge           Charge          ....    1
 Multiplicity           Mult            ....    1
 Number of Electrons    NEL             ....   52
 Basis Dimension        Dim             ....  277
 Nuclear Repulsion      ENuc            ....    324.0142452235 Eh

 Symmetry handling      UseSym         .... ON
 Point group                           .... Cs
 Used point group                      .... Cs
 Number of irreps                      .... 2
   Irrep   A' has  148 symmetry adapted basis functions (ofs=   0)
   Irrep   A" has  129 symmetry adapted basis functions (ofs= 148)

Convergence Acceleration:
 DIIS                   CNVDIIS         .... on
   Start iteration      DIISMaxIt       ....    12
   Startup error        DIISStart       ....  0.200000
   # of expansion vecs  DIISMaxEq       ....     5
   Bias factor          DIISBfac        ....   1.050
   Max. coefficient     DIISMaxC        ....  10.000
 Newton-Raphson         CNVNR           .... off
 SOSCF                  CNVSOSCF        .... on
   Start iteration      SOSCFMaxIt      ....   150
   Startup grad/error   SOSCFStart      ....  0.003300
 Level Shifting         CNVShift        .... on
   Level shift para.    LevelShift      ....    0.2500
   Turn off err/grad.   ShiftErr        ....    0.0010
 Zerner damping         CNVZerner       .... off
 Static damping         CNVDamp         .... on
   Fraction old density DampFac         ....    0.7000
   Max. Damping (<1)    DampMax         ....    0.9800
   Min. Damping (>=0)   DampMin         ....    0.0000
   Turn off err/grad.   DampErr         ....    0.1000
 Fernandez-Rico         CNVRico         .... off

SCF Procedure:
 Maximum # iterations   MaxIter         ....   125
 SCF integral mode      SCFMode         .... Direct
   Integral package                     .... LIBINT
 Reset frequeny         DirectResetFreq ....    20
 Integral Threshold     Thresh          ....  2.500e-11 Eh
 Primitive CutOff       TCut            ....  2.500e-12 Eh

Convergence Tolerance:
 Convergence Check Mode ConvCheckMode   .... Total+1el-Energy
 Energy Change          TolE            ....  1.000e-08 Eh
 1-El. energy change                    ....  1.000e-05 Eh
 Orbital Gradient       TolG            ....  1.000e-05
 Orbital Rotation angle TolX            ....  1.000e-05
 DIIS Error             TolErr          ....  5.000e-07


Diagonalization of the overlap matrix:
Smallest eigenvalue                        ... 2.774e-05
Time for diagonalization                   ...    0.070 sec
Threshold for overlap eigenvalues          ... 1.000e-08
Number of eigenvalues below threshold      ... 0
Time for construction of square roots      ...    0.017 sec
Producing symmetrization matrix            ... done (   0.018 sec)
Total time needed                          ...    0.106 sec

-------------------
DFT GRID GENERATION
-------------------

General Integration Accuracy     IntAcc      ...  4.340
Radial Grid Type                 RadialGrid  ... Gauss-Chebyshev
Angular Grid (max. acc.)         AngularGrid ... Lebedev-194
Angular grid pruning method      GridPruning ... 3 (G Style)
Weight generation scheme         WeightScheme... Becke
Basis function cutoff            BFCut       ...    1.0000e-11
Integration weight cutoff        WCut        ...    1.0000e-14
Grids for H and He will be reduced by one unit

# of grid points (after initial pruning)     ...  38278 (   0.0 sec)
# of grid points (after weights+screening)   ...  34616 (   0.2 sec)
nearest neighbour list constructed           ...    0.0 sec
Grid point re-assignment to atoms done       ...    0.0 sec
Grid point division into batches done        ...    0.1 sec
Reduced shell lists constructed in    0.1 sec

Total number of grid points                  ...    34616
Total number of batches                      ...      549
Average number of points per batch           ...       63
Average number of grid points per atom       ...     2036
Average number of shells per batch           ...   101.34 (86.62%)
Average number of basis functions per batch  ...   255.57 (92.26%)
Average number of large shells per batch     ...    86.79 (85.64%)
Average number of large basis fcns per batch ...   219.10 (85.73%)
Maximum spatial batch extension              ...   2.31,  2.99,  2.57 au
Average spatial batch extension              ...   0.14,  0.16,  0.15 au

Time for grid setup =    0.894 sec

Loading Hartree-Fock densities                     ... done
Calculating cut-offs                               ... done
Setting up the integral package                    ... done
Initializing the effective Hamiltonian             ... done
Starting the Coulomb interaction                   ... done (   0.0 sec)
Reading the grid                                   ... done
Mapping shells                                     ... done
Starting the XC term evaluation                    ... done (   0.7 sec)
  promolecular density results
     # of electrons  =     52.999615175
     EX              =    -40.255094714
     EC              =     -1.772441920
     EX+EC           =    -42.027536633
done (   0.0 sec)
Diagonalizing the Hamiltonian                      ... done (   0.0 sec)
Back transforming the eigenvectors                 ... done (   0.0 sec)
Now organizing SCF variables                       ... done
The symmetry of the initial guess is 1-A'
Irrep occupations for operator 0
    A' -   16
    A" -   10
--------------
SCF ITERATIONS
--------------
ITER       Energy         Delta-E        Max-DP      RMS-DP      [F,P]     Damp
               ***  Starting incremental Fock matrix formation  ***
  0   -288.7732198700   0.000000000000 0.02895014  0.00104097  0.1212560 0.7000
  1   -288.8232300313  -0.050010161311 0.01451480  0.00049344  0.0512762 0.7000
                               ***Turning on DIIS***
  2   -288.8479720036  -0.024741972255 0.02984107  0.00099388  0.0285044 0.0000
  3   -288.8976876902  -0.049715686618 0.00791291  0.00028730  0.0149858 0.0000
  4   -288.8994372109  -0.001749520731 0.00207105  0.00007822  0.0055809 0.0000
                      *** Initiating the SOSCF procedure ***
                           *** Shutting down DIIS ***
                      *** Re-Reading the Fockian *** 
                      *** Removing any level shift *** 
ITER      Energy       Delta-E        Grad      Rot      Max-DP    RMS-DP
  5   -288.89971096  -0.0002737458  0.000200  0.000200  0.000497  0.000017
               *** Restarting incremental Fock matrix formation ***
  6   -288.89971600  -0.0000050442  0.000136  0.000229  0.000251  0.000008
  7   -288.89971551   0.0000004959  0.000181  0.000133  0.000138  0.000005
  8   -288.89971677  -0.0000012649  0.000007  0.000011  0.000014  0.000001
  9   -288.89971677   0.0000000014  0.000009  0.000006  0.000010  0.000000
                  ***Gradient check signals convergence***
              ***Rediagonalizing the Fockian in SOSCF/NRSCF***

               *****************************************************
               *                     SUCCESS                       *
               *           SCF CONVERGED AFTER  10 CYCLES          *
               *****************************************************

Setting up the final grid:

General Integration Accuracy     IntAcc      ...  5.010
Radial Grid Type                 RadialGrid  ... Gauss-Chebyshev
Angular Grid (max. acc.)         AngularGrid ... Lebedev-434
Angular grid pruning method      GridPruning ... 3 (G Style)
Weight generation scheme         WeightScheme... Becke
Basis function cutoff            BFCut       ...    1.0000e-11
Integration weight cutoff        WCut        ...    1.0000e-14
Grids for H and He will be reduced by one unit

# of grid points (after initial pruning)     ... 141698 (   0.0 sec)
# of grid points (after weights+screening)   ... 126898 (   1.6 sec)
nearest neighbour list constructed           ...    0.0 sec
Grid point re-assignment to atoms done       ...    0.0 sec
Grid point division into batches done        ...    1.5 sec
Reduced shell lists constructed in    1.9 sec

Total number of grid points                  ...   126898
Total number of batches                      ...     1992
Average number of points per batch           ...       63
Average number of grid points per atom       ...     7465
Average number of shells per batch           ...   100.60 (85.98%)
Average number of basis functions per batch  ...   254.74 (91.97%)
Average number of large shells per batch     ...    85.28 (84.77%)
Average number of large basis fcns per batch ...   215.20 (84.48%)
Maximum spatial batch extension              ...   2.56,  2.44,  2.44 au
Average spatial batch extension              ...   0.10,  0.10,  0.10 au

Final grid set up in    3.9 sec
Final integration                            ... done (   1.4 sec)
Change in XC energy                          ...     0.000649728
Integrated number of electrons               ...    52.000004382
Previous integrated no of electrons          ...    52.002034033
Total Energy       :         -288.89906704 Eh           -7861.34328 eV
  Last Energy change         ...   -3.9070e-09  Tolerance :   1.0000e-08
  Last MAX-Density change    ...    1.6215e-06  Tolerance :   1.0000e-07
             **** THE GBW FILE WAS UPDATED (1556_+.gbw) ****
             **** DENSITY FILE WAS UPDATED (1556_+.scfp.tmp) ****
             **** ENERGY FILE WAS UPDATED (1556_+.en.tmp) ****
Total SCF time: 0 days 0 hours 2 min 10 sec 
           ************************************************************
           *              Shut down parallel processing               *
           ************************************************************

-------------------------   --------------------
FINAL SINGLE POINT ENERGY      -288.899067044558
-------------------------   --------------------



           ************************************************************
           *        Program running with 8 parallel MPI-processes     *
           *              working on a common directory               *
           ************************************************************
------------------------------------------------------------------------------
                         ORCA SCF GRADIENT CALCULATION
------------------------------------------------------------------------------

Gradient of the Kohn-Sham DFT energy:
Kohn-Sham wavefunction type      ... RKS
Hartree-Fock exchange scaling    ...    0.250
Number of operators              ...    1
Number of atoms                  ...   17
Basis set dimensions             ...  277
Integral neglect threshold       ... 2.5e-11
Integral primitive cutoff        ... 2.5e-12

Nuclear repulsion gradient       ... done
One Electron Gradient            ... done
Pre-screening matrix             ... done
Starting the two electron gradient:
Two electron gradient done
Exchange-correlation gradient    ... done

------------------
CARTESIAN GRADIENT
------------------

   1   C   :    0.000122113   -0.000117061   -0.000016782
   2   C   :    0.000122107   -0.000117058    0.000016777
   3   C   :   -0.000116767    0.000070716   -0.000007440
   4   N   :    0.000010606    0.000046085    0.000000001
   5   C   :   -0.000116767    0.000070716    0.000007435
   6   C   :    0.000116486   -0.000091169   -0.000098610
   7   C   :    0.000116488   -0.000091172    0.000098616
   8   H   :   -0.000005740    0.000074334   -0.000033457
   9   H   :   -0.000043968    0.000054292    0.000066807
  10   H   :   -0.000005739    0.000074334    0.000033459
  11   H   :   -0.000043965    0.000054293   -0.000066803
  12   H   :    0.000015377    0.000008943   -0.000034686
  13   H   :    0.000049702   -0.000034323   -0.000000001
  14   H   :   -0.000087236   -0.000112855    0.000000001
  15   H   :    0.000015379    0.000008944    0.000034686
  16   H   :   -0.000074037    0.000050489    0.000023750
  17   H   :   -0.000074038    0.000050490   -0.000023753

Norm of the cartesian gradient     ...    0.000486710
RMS gradient                       ...    0.000068153
MAX gradient                       ...    0.000122113

-------
TIMINGS
-------

Total SCF gradient time            ...       67.238 sec

One electron gradient       ....       0.125 sec  (  0.2%)
Prescreening matrices       ....       0.970 sec  (  1.4%)
Two electron gradient       ....      29.041 sec  ( 43.2%)
XC gradient                 ....       3.137 sec  (  4.7%)
           ************************************************************
           *              Shut down parallel processing               *
           ************************************************************
------------------------------------------------------------------------------
                         ORCA GEOMETRY RELAXATION STEP
------------------------------------------------------------------------------

Reading the OPT-File                    .... done
Getting information on internals        .... done
Copying old internal coords+grads       .... done
Making the new internal coordinates     .... (new redundants).... done
Validating the new internal coordinates .... (new redundants).... done
Calculating the B-matrix                .... done
Calculating the G,G- and P matrices     .... done
Transforming gradient to internals      .... done
Projecting the internal gradient        .... done
Number of atoms                         ....  17
Number of internal coordinates          .... 115
Current Energy                          ....  -288.899067045 Eh
Current gradient norm                   ....     0.000486710 Eh/bohr
Maximum allowed component of the step   ....  0.300
Current trust radius                    ....  0.300
Evaluating the initial hessian          ....  (Almloef) done
Projecting the Hessian                  .... done
Forming the augmented Hessian           .... done
Diagonalizing the augmented Hessian     .... done
Last element of RFO vector              ....  0.999988178
Lowest eigenvalues of augmented Hessian:
 -0.000000985  0.012683037  0.021029760  0.027193065  0.031725622
Length of the computed step             ....  0.004862627
The final length of the internal step   ....  0.004862627
Converting the step to cartesian space:
 Initial RMS(Int)=    0.0004534423
Transforming coordinates:
 Iter   0:  RMS(Cart)=    0.0007418238 RMS(Int)=    0.0004534641
 Iter   1:  RMS(Cart)=    0.0000003299 RMS(Int)=    0.0000002018
 Iter   2:  RMS(Cart)=    0.0000000003 RMS(Int)=    0.0000000003
done
Storing new coordinates                 .... done

                                .--------------------.
          ----------------------|Geometry convergence|---------------------
          Item                value                 Tolerance   Converged
          -----------------------------------------------------------------
          RMS gradient        0.00002915            0.00003000      YES
          MAX gradient        0.00008366            0.00010000      YES
          RMS step            0.00045344            0.00060000      YES
          MAX step            0.00122417            0.00100000      NO
          ....................................................
          Max(Bonds)      0.0001      Max(Angles)    0.03
          Max(Dihed)        0.07      Max(Improp)    0.00
          -----------------------------------------------------------------

       The energies and gradients are converged
       and the convergence on bond distances, angles, dihedrals and impropers
       is acceptable.
       Convergence will therefore be signaled now


                    ***********************HURRAY********************
                    ***        THE OPTIMIZATION HAS CONVERGED     ***
                    *************************************************


    ---------------------------------------------------------------------------
                         Redundant Internal Coordinates

                          --- Optimized Parameters ---  
                            (Angstroem and degrees)

        Definition                    OldVal   dE/dq     Step     FinalVal
    ----------------------------------------------------------------------------
     1. B(C   1,C   0)                1.5477  0.000013 -0.0001    1.5476   
     2. B(C   2,C   1)                1.5428 -0.000051  0.0001    1.5429   
     3. B(N   3,C   2)                1.5127 -0.000002 -0.0000    1.5127   
     4. B(C   4,N   3)                1.5127 -0.000002 -0.0000    1.5127   
     5. B(C   4,C   0)                1.5428 -0.000051  0.0001    1.5429   
     6. B(C   5,C   4)                1.5074 -0.000041  0.0001    1.5075   
     7. B(C   6,C   2)                1.5074 -0.000041  0.0001    1.5075   
     8. B(C   6,C   5)                1.3300 -0.000038  0.0001    1.3301   
     9. B(H   7,C   0)                1.0915 -0.000073  0.0001    1.0916   
    10. B(H   8,C   0)                1.0882  0.000067 -0.0001    1.0881   
    11. B(H   9,C   1)                1.0915 -0.000073  0.0001    1.0916   
    12. B(H  10,C   1)                1.0882  0.000067 -0.0001    1.0881   
    13. B(H  11,C   2)                1.0873  0.000038 -0.0001    1.0872   
    14. B(H  12,N   3)                1.0212  0.000006 -0.0000    1.0212   
    15. B(H  13,N   3)                1.0215  0.000042 -0.0001    1.0215   
    16. B(H  14,C   4)                1.0873  0.000038 -0.0001    1.0872   
    17. B(H  15,C   5)                1.0809  0.000084 -0.0001    1.0808   
    18. B(H  16,C   6)                1.0809  0.000084 -0.0001    1.0808   
    19. A(C   1,C   0,H   7)          111.57  0.000007    0.00    111.57   
    20. A(C   1,C   0,H   8)          113.54  0.000021   -0.01    113.52   
    21. A(C   4,C   0,H   8)          110.21 -0.000038    0.01    110.22   
    22. A(C   1,C   0,C   4)          102.89  0.000005   -0.00    102.89   
    23. A(H   7,C   0,H   8)          107.65  0.000013   -0.01    107.64   
    24. A(C   4,C   0,H   7)          110.99 -0.000010    0.01    111.00   
    25. A(H   9,C   1,H  10)          107.65  0.000013   -0.01    107.64   
    26. A(C   2,C   1,H  10)          110.21 -0.000038    0.01    110.22   
    27. A(C   2,C   1,H   9)          110.99 -0.000010    0.01    111.00   
    28. A(C   0,C   1,H  10)          113.54  0.000021   -0.01    113.52   
    29. A(C   0,C   1,H   9)          111.57  0.000007    0.00    111.57   
    30. A(C   0,C   1,C   2)          102.89  0.000005   -0.00    102.89   
    31. A(C   6,C   2,H  11)          118.15  0.000014   -0.00    118.14   
    32. A(N   3,C   2,H  11)          112.38  0.000014   -0.00    112.38   
    33. A(C   1,C   2,H  11)          116.85 -0.000011    0.00    116.85   
    34. A(N   3,C   2,C   6)           98.81 -0.000004   -0.02     98.79   
    35. A(C   1,C   2,N   3)           99.62 -0.000036    0.03     99.65   
    36. A(C   1,C   2,C   6)          108.04  0.000015   -0.01    108.03   
    37. A(C   4,N   3,H  13)          113.35 -0.000015    0.02    113.37   
    38. A(C   2,N   3,H  13)          113.35 -0.000015    0.02    113.37   
    39. A(C   4,N   3,H  12)          112.06 -0.000004   -0.01    112.05   
    40. A(C   2,N   3,H  12)          112.06 -0.000004   -0.01    112.05   
    41. A(C   2,N   3,C   4)           95.30  0.000012   -0.00     95.30   
    42. A(H  12,N   3,H  13)          110.08  0.000022   -0.01    110.07   
    43. A(C   0,C   4,H  14)          116.85 -0.000011    0.00    116.85   
    44. A(N   3,C   4,C   5)           98.81 -0.000004   -0.02     98.79   
    45. A(C   0,C   4,C   5)          108.04  0.000015   -0.01    108.03   
    46. A(C   0,C   4,N   3)           99.62 -0.000036    0.03     99.65   
    47. A(C   5,C   4,H  14)          118.15  0.000014   -0.00    118.14   
    48. A(N   3,C   4,H  14)          112.38  0.000014   -0.00    112.38   
    49. A(C   4,C   5,C   6)          107.49  0.000015   -0.00    107.48   
    50. A(C   6,C   5,H  15)          128.34 -0.000042    0.01    128.35   
    51. A(C   4,C   5,H  15)          123.86  0.000025   -0.00    123.86   
    52. A(C   2,C   6,C   5)          107.49  0.000015   -0.00    107.48   
    53. A(C   5,C   6,H  16)          128.34 -0.000042    0.01    128.35   
    54. A(C   2,C   6,H  16)          123.86  0.000025   -0.00    123.86   
    55. D(H   9,C   1,C   0,H   8)   -121.85 -0.000038    0.02   -121.83   
    56. D(C   2,C   1,C   0,H   8)    119.09 -0.000032    0.01    119.10   
    57. D(C   2,C   1,C   0,H   7)   -119.06  0.000006   -0.01   -119.06   
    58. D(H  10,C   1,C   0,C   4)   -119.09  0.000032   -0.01   -119.10   
    59. D(H  10,C   1,C   0,H   8)      0.00  0.000000   -0.00     -0.00   
    60. D(H   9,C   1,C   0,H   7)     -0.00 -0.000000   -0.00     -0.00   
    61. D(H   9,C   1,C   0,C   4)    119.06 -0.000006    0.01    119.06   
    62. D(H  10,C   1,C   0,H   7)    121.85  0.000038   -0.02    121.83   
    63. D(C   2,C   1,C   0,C   4)      0.00  0.000000   -0.00     -0.00   
    64. D(C   6,C   2,C   1,H   9)    174.04  0.000020   -0.01    174.03   
    65. D(N   3,C   2,C   1,H  10)    157.51  0.000021   -0.03    157.48   
    66. D(N   3,C   2,C   1,H   9)    -83.33  0.000006   -0.02    -83.35   
    67. D(N   3,C   2,C   1,C   0)     36.12  0.000012   -0.02     36.11   
    68. D(H  11,C   2,C   1,H  10)    -81.25  0.000008   -0.01    -81.25   
    69. D(H  11,C   2,C   1,H   9)     37.91 -0.000007   -0.00     37.91   
    70. D(H  11,C   2,C   1,C   0)    157.37 -0.000001    0.00    157.37   
    71. D(C   6,C   2,C   1,H  10)     54.88  0.000034   -0.02     54.87   
    72. D(C   6,C   2,C   1,C   0)    -66.50  0.000026   -0.01    -66.51   
    73. D(H  13,N   3,C   2,C   6)    169.84 -0.000044    0.07    169.90   
    74. D(H  13,N   3,C   2,C   1)     59.71 -0.000051    0.07     59.78   
    75. D(H  12,N   3,C   2,H  11)     60.63 -0.000008    0.04     60.67   
    76. D(H  12,N   3,C   2,C   6)    -64.83 -0.000030    0.06    -64.77   
    77. D(C   4,N   3,C   2,C   6)     51.57 -0.000029    0.04     51.61   
    78. D(C   4,N   3,C   2,C   1)    -58.55 -0.000036    0.04    -58.51   
    79. D(H  12,N   3,C   2,C   1)   -174.95 -0.000037    0.06   -174.89   
    80. D(H  13,N   3,C   2,H  11)    -64.71 -0.000023    0.05    -64.66   
    81. D(C   4,N   3,C   2,H  11)    177.03 -0.000008    0.02    177.05   
    82. D(C   5,C   4,C   0,C   1)     66.50 -0.000026    0.01     66.51   
    83. D(N   3,C   4,C   0,H   7)     83.33 -0.000006    0.02     83.35   
    84. D(N   3,C   4,C   0,C   1)    -36.12 -0.000012    0.02    -36.11   
    85. D(N   3,C   4,C   0,H   8)   -157.51 -0.000021    0.03   -157.48   
    86. D(H  14,C   4,N   3,H  13)     64.71  0.000023   -0.05     64.66   
    87. D(H  14,C   4,N   3,H  12)    -60.63  0.000008   -0.04    -60.67   
    88. D(C   5,C   4,N   3,H  13)   -169.84  0.000044   -0.07   -169.90   
    89. D(C   5,C   4,N   3,H  12)     64.83  0.000030   -0.06     64.77   
    90. D(C   5,C   4,N   3,C   2)    -51.57  0.000029   -0.04    -51.61   
    91. D(C   0,C   4,N   3,H  13)    -59.71  0.000051   -0.07    -59.78   
    92. D(C   0,C   4,N   3,H  12)    174.95  0.000037   -0.06    174.89   
    93. D(C   0,C   4,N   3,C   2)     58.55  0.000036   -0.04     58.51   
    94. D(H  14,C   4,C   0,H   8)     81.25 -0.000008    0.01     81.25   
    95. D(H  14,C   4,C   0,H   7)    -37.91  0.000007    0.00    -37.91   
    96. D(H  14,C   4,N   3,C   2)   -177.03  0.000008   -0.02   -177.05   
    97. D(H  14,C   4,C   0,C   1)   -157.37  0.000001   -0.00   -157.37   
    98. D(C   5,C   4,C   0,H   8)    -54.88 -0.000034    0.02    -54.87   
    99. D(C   5,C   4,C   0,H   7)   -174.04 -0.000020    0.01   -174.03   
   100. D(H  15,C   5,C   4,H  14)    -31.05 -0.000013    0.04    -31.01   
   101. D(H  15,C   5,C   4,N   3)   -152.38 -0.000035    0.06   -152.32   
   102. D(H  15,C   5,C   4,C   0)    104.42  0.000002    0.03    104.46   
   103. D(C   6,C   5,C   4,H  14)    154.92  0.000006    0.00    154.93   
   104. D(C   6,C   5,C   4,N   3)     33.59 -0.000017    0.02     33.61   
   105. D(C   6,C   5,C   4,C   0)    -69.60  0.000020   -0.01    -69.61   
   106. D(H  16,C   6,C   5,H  15)      0.00 -0.000000    0.00      0.00   
   107. D(H  16,C   6,C   5,C   4)    173.67 -0.000014    0.04    173.71   
   108. D(C   2,C   6,C   5,C   4)     -0.00  0.000000   -0.00     -0.00   
   109. D(H  16,C   6,C   2,H  11)     31.05  0.000013   -0.04     31.01   
   110. D(H  16,C   6,C   2,N   3)    152.38  0.000035   -0.06    152.32   
   111. D(H  16,C   6,C   2,C   1)   -104.42 -0.000002   -0.03   -104.46   
   112. D(C   2,C   6,C   5,H  15)   -173.67  0.000014   -0.04   -173.71   
   113. D(C   5,C   6,C   2,H  11)   -154.92 -0.000006   -0.00   -154.93   
   114. D(C   5,C   6,C   2,N   3)    -33.59  0.000017   -0.02    -33.61   
   115. D(C   5,C   6,C   2,C   1)     69.60 -0.000020    0.01     69.61   
    ----------------------------------------------------------------------------
                 *******************************************************
                 *** FINAL ENERGY EVALUATION AT THE STATIONARY POINT ***
                 ***               (AFTER    1 CYCLES)               ***
                 *******************************************************


           ************************************************************
           *        Program running with 8 parallel MPI-processes     *
           *              working on a common directory               *
           ************************************************************
           ************************************************************
           *              Shut down parallel processing               *
           ************************************************************


           ************************************************************
           *        Program running with 8 parallel MPI-processes     *
           *              working on a common directory               *
           ************************************************************
------------
SCF SETTINGS
------------
Hamiltonian:
 Density Functional     Method          .... DFT(GTOs)
 Exchange Functional    Exchange        .... PBE
   PBE kappa parameter  XKappa          ....  0.804000
 Correlation Functional Correlation     .... PBE
 LDA part of GGA corr.  LDAOpt          .... PW91-LDA
 Gradients option       PostSCFGGA      .... off
 Hybrid DFT is turned on
   Fraction HF Exchange ScalHFX         ....  0.250000
   Scaling of DF-GGA-X  ScalDFX         ....  0.750000
   Scaling of DF-GGA-C  ScalDFC         ....  1.000000
   Scaling of DF-LDA-C  ScalLDAC        ....  1.000000
   Perturbative correction              ....  0.000000
   NL short-range parameter             ....  6.900000


General Settings:
 Integral files         IntName         .... 1556_+
 Hartree-Fock type      HFTyp           .... RHF
 Total Charge           Charge          ....    1
 Multiplicity           Mult            ....    1
 Number of Electrons    NEL             ....   52
 Basis Dimension        Dim             ....  277
 Nuclear Repulsion      ENuc            ....    324.0093183491 Eh

 Symmetry handling      UseSym         .... ON
 Point group                           .... Cs
 Used point group                      .... Cs
 Number of irreps                      .... 2
   Irrep   A' has  148 symmetry adapted basis functions (ofs=   0)
   Irrep   A" has  129 symmetry adapted basis functions (ofs= 148)

Convergence Acceleration:
 DIIS                   CNVDIIS         .... on
   Start iteration      DIISMaxIt       ....    12
   Startup error        DIISStart       ....  0.200000
   # of expansion vecs  DIISMaxEq       ....     5
   Bias factor          DIISBfac        ....   1.050
   Max. coefficient     DIISMaxC        ....  10.000
 Newton-Raphson         CNVNR           .... off
 SOSCF                  CNVSOSCF        .... on
   Start iteration      SOSCFMaxIt      ....   150
   Startup grad/error   SOSCFStart      ....  0.003300
 Level Shifting         CNVShift        .... on
   Level shift para.    LevelShift      ....    0.2500
   Turn off err/grad.   ShiftErr        ....    0.0010
 Zerner damping         CNVZerner       .... off
 Static damping         CNVDamp         .... on
   Fraction old density DampFac         ....    0.7000
   Max. Damping (<1)    DampMax         ....    0.9800
   Min. Damping (>=0)   DampMin         ....    0.0000
   Turn off err/grad.   DampErr         ....    0.1000
 Fernandez-Rico         CNVRico         .... off

SCF Procedure:
 Maximum # iterations   MaxIter         ....   125
 SCF integral mode      SCFMode         .... Direct
   Integral package                     .... LIBINT
 Reset frequeny         DirectResetFreq ....    20
 Integral Threshold     Thresh          ....  2.500e-11 Eh
 Primitive CutOff       TCut            ....  2.500e-12 Eh

Convergence Tolerance:
 Convergence Check Mode ConvCheckMode   .... Total+1el-Energy
 Energy Change          TolE            ....  1.000e-08 Eh
 1-El. energy change                    ....  1.000e-05 Eh
 Orbital Gradient       TolG            ....  1.000e-05
 Orbital Rotation angle TolX            ....  1.000e-05
 DIIS Error             TolErr          ....  5.000e-07


Diagonalization of the overlap matrix:
Smallest eigenvalue                        ... 2.774e-05
Time for diagonalization                   ...    0.095 sec
Threshold for overlap eigenvalues          ... 1.000e-08
Number of eigenvalues below threshold      ... 0
Time for construction of square roots      ...    0.013 sec
Producing symmetrization matrix            ... done (   0.012 sec)
Total time needed                          ...    0.121 sec

Warning: Geometry matches/Basis set matches and symmetry is to be used
         We proceed in good trust that the input orbitals and irreps are correct
Irrep occupations for operator 0
    A' -   16
    A" -   10
-------------------
DFT GRID GENERATION
-------------------

General Integration Accuracy     IntAcc      ...  4.340
Radial Grid Type                 RadialGrid  ... Gauss-Chebyshev
Angular Grid (max. acc.)         AngularGrid ... Lebedev-194
Angular grid pruning method      GridPruning ... 3 (G Style)
Weight generation scheme         WeightScheme... Becke
Basis function cutoff            BFCut       ...    1.0000e-11
Integration weight cutoff        WCut        ...    1.0000e-14
Grids for H and He will be reduced by one unit

# of grid points (after initial pruning)     ...  38278 (   0.0 sec)
# of grid points (after weights+screening)   ...  34618 (   0.1 sec)
nearest neighbour list constructed           ...    0.0 sec
Grid point re-assignment to atoms done       ...    0.0 sec
Grid point division into batches done        ...    0.1 sec
Reduced shell lists constructed in    0.2 sec

Total number of grid points                  ...    34618
Total number of batches                      ...      550
Average number of points per batch           ...       62
Average number of grid points per atom       ...     2036
Average number of shells per batch           ...   101.39 (86.65%)
Average number of basis functions per batch  ...   255.70 (92.31%)
Average number of large shells per batch     ...    86.79 (85.60%)
Average number of large basis fcns per batch ...   219.07 (85.68%)
Maximum spatial batch extension              ...   2.31,  2.82,  2.57 au
Average spatial batch extension              ...   0.14,  0.15,  0.15 au

Time for grid setup =    0.494 sec

--------------
SCF ITERATIONS
--------------
ITER       Energy         Delta-E        Max-DP      RMS-DP      [F,P]     Damp
               ***  Starting incremental Fock matrix formation  ***
                      *** Initiating the SOSCF procedure ***
                      *** Re-Reading the Fockian *** 
                      *** Removing any level shift *** 
ITER      Energy       Delta-E        Grad      Rot      Max-DP    RMS-DP
  0   -288.89971809 -288.8997180947  0.000080  0.000080  0.000219  0.000006
               *** Restarting incremental Fock matrix formation ***
  1   -288.89971858  -0.0000004804  0.000010  0.000119  0.000047  0.000002
  2   -288.89971856   0.0000000125  0.000031  0.000112  0.000061  0.000002
  3   -288.89971858  -0.0000000184  0.000010  0.000127  0.000082  0.000002
  4   -288.89971857   0.0000000067  0.000024  0.000136  0.000080  0.000002
  5   -288.89971858  -0.0000000084  0.000012  0.000098  0.000062  0.000002
  6   -288.89971858   0.0000000058  0.000013  0.000053  0.000041  0.000001
                  ***Gradient check signals convergence***
              ***Rediagonalizing the Fockian in SOSCF/NRSCF***

               *****************************************************
               *                     SUCCESS                       *
               *           SCF CONVERGED AFTER   7 CYCLES          *
               *****************************************************

Setting up the final grid:

General Integration Accuracy     IntAcc      ...  5.010
Radial Grid Type                 RadialGrid  ... Gauss-Chebyshev
Angular Grid (max. acc.)         AngularGrid ... Lebedev-434
Angular grid pruning method      GridPruning ... 3 (G Style)
Weight generation scheme         WeightScheme... Becke
Basis function cutoff            BFCut       ...    1.0000e-11
Integration weight cutoff        WCut        ...    1.0000e-14
Grids for H and He will be reduced by one unit

# of grid points (after initial pruning)     ... 141698 (   0.0 sec)
# of grid points (after weights+screening)   ... 126904 (   1.5 sec)
nearest neighbour list constructed           ...    0.0 sec
Grid point re-assignment to atoms done       ...    0.0 sec
Grid point division into batches done        ...    0.8 sec
Reduced shell lists constructed in    1.0 sec

Total number of grid points                  ...   126904
Total number of batches                      ...     1992
Average number of points per batch           ...       63
Average number of grid points per atom       ...     7465
Average number of shells per batch           ...   100.63 (86.01%)
Average number of basis functions per batch  ...   254.90 (92.02%)
Average number of large shells per batch     ...    85.24 (84.70%)
Average number of large basis fcns per batch ...   215.12 (84.39%)
Maximum spatial batch extension              ...   2.57,  2.44,  2.05 au
Average spatial batch extension              ...   0.10,  0.10,  0.10 au

Final grid set up in    3.8 sec
Final integration                            ... done (   1.5 sec)
Change in XC energy                          ...     0.000650816
Integrated number of electrons               ...    52.000005415
Previous integrated no of electrons          ...    52.002042503
Total Energy       :         -288.89906777 Eh           -7861.34330 eV
  Last Energy change         ...   -7.9301e-09  Tolerance :   1.0000e-08
  Last MAX-Density change    ...    1.3367e-05  Tolerance :   1.0000e-07
             **** THE GBW FILE WAS UPDATED (1556_+.gbw) ****
             **** DENSITY FILE WAS UPDATED (1556_+.scfp.tmp) ****
             **** ENERGY FILE WAS UPDATED (1556_+.en.tmp) ****
Total SCF time: 0 days 0 hours 1 min 32 sec 
           ************************************************************
           *              Shut down parallel processing               *
           ************************************************************

-------------------------   --------------------
FINAL SINGLE POINT ENERGY      -288.899067768741
-------------------------   --------------------

                                *** OPTIMIZATION RUN DONE ***

                            ***************************************
                            *     ORCA property calculations      *
                            ***************************************

                                    ---------------------
                                    Active property flags
                                    ---------------------




           ************************************************************
           *        Program running with 8 parallel MPI-processes     *
           *              working on a common directory               *
           ************************************************************

-------------------------------------------------------------------------------
                               ORCA SCF HESSIAN
-------------------------------------------------------------------------------

Hessian of the Kohn-Sham DFT energy:
Kohn-Sham wavefunction type                      ... RKS
Hartree-Fock exchange scaling                    ...    0.250
Number of operators                              ...    1
Number of atoms                                  ...   17
Basis set dimensions                             ...  277
Integral neglect threshold                       ... 2.5e-11
Integral primitive cutoff                        ... 2.5e-12

Setting up DFT Hessian calculations              ... 
Electron density on the grid                     ... found on disk
Electron density on the final grid               ... found on disk
Building xc-kernel on the grid                   ... done   (      0.0 sec)
Building xc-kernel on the final grid             ... done   (      0.1 sec)
                                                     done   (      9.1 sec)

Nuclear repulsion Hessian                        ... done   (      0.0 sec)

----------------------------------------------
Forming right-hand sides of CP-SCF equations     ...
----------------------------------------------
One electron integral derivatives                ... done   (      0.4 sec)
Transforming the overlap derivative matrices     ... done   (      0.4 sec)
Making the Q(x) pseudodensities                  ... done   (      0.3 sec)
Adding the E*S(x)*S(y) terms to the Hessian      ... done   (      0.0 sec)
Calculating energy weighted overlap derivatives  ... done   (      0.0 sec)
Two electron integral derivatives                ... done   (     69.2 sec)
Exchange-correlation integral derivatives        ... done   (    105.3 sec)
tr(F(y)Q(x)) contribution to the Hessian         ... done   (      0.0 sec)
Response fock operator R(S(x))                   ... done   (    167.4 sec)
XC Response fock operator R(S(x))                ... done   (    101.3 sec)
tr(F(y)S(x)) contribution to the Hessian         ... done   (      0.0 sec)
Transforming and finalizing RHSs                 ... done   (      0.1 sec)

----------------------------------------------
Solving the CP-SCF equations                     ...
----------------------------------------------
     CP-SCF ITERATION   0: 
     CP-SCF ITERATION   1:      0.000973399
     CP-SCF ITERATION   2:      0.000115015
     CP-SCF ITERATION   3:      0.000011341
     CP-SCF ITERATION   4:      0.000001224
     CP-SCF ITERATION   5:      0.000000054
     CP-SCF ITERATION   6:      0.000000004

                                                 ... done   (   1548.4 sec)
Forming perturbed density Hessian contributions  ... done   (      0.2 sec)
Making the perturbed densities                   ... done   (      0.0 sec)
2nd integral derivative contribs                 ... done   (    464.1 sec)
Exchange-correlation Hessian                     ... done   (     31.4 sec)
Dipol derivatives                                ... done   (      4.8 sec)

Total SCF Hessian time: 0 days 0 hours 41 min 43 sec 

Writing the Hessian file to the disk             ... done

           ************************************************************
           *              Shut down parallel processing               *
           ************************************************************

-----------------------
VIBRATIONAL FREQUENCIES
-----------------------

   0:         0.00 cm**-1
   1:         0.00 cm**-1
   2:         0.00 cm**-1
   3:         0.00 cm**-1
   4:         0.00 cm**-1
   5:         0.00 cm**-1
   6:       249.19 cm**-1
   7:       382.83 cm**-1
   8:       483.48 cm**-1
   9:       487.38 cm**-1
  10:       691.71 cm**-1
  11:       740.97 cm**-1
  12:       777.39 cm**-1
  13:       792.49 cm**-1
  14:       810.33 cm**-1
  15:       865.11 cm**-1
  16:       898.49 cm**-1
  17:       910.84 cm**-1
  18:       959.79 cm**-1
  19:       967.03 cm**-1
  20:       981.74 cm**-1
  21:       986.90 cm**-1
  22:       999.07 cm**-1
  23:      1056.46 cm**-1
  24:      1057.75 cm**-1
  25:      1125.07 cm**-1
  26:      1159.25 cm**-1
  27:      1183.99 cm**-1
  28:      1212.39 cm**-1
  29:      1227.44 cm**-1
  30:      1239.42 cm**-1
  31:      1298.05 cm**-1
  32:      1318.65 cm**-1
  33:      1339.02 cm**-1
  34:      1343.46 cm**-1
  35:      1352.60 cm**-1
  36:      1390.97 cm**-1
  37:      1486.99 cm**-1
  38:      1502.79 cm**-1
  39:      1623.09 cm**-1
  40:      1667.84 cm**-1
  41:      3094.25 cm**-1
  42:      3102.46 cm**-1
  43:      3158.89 cm**-1
  44:      3169.60 cm**-1
  45:      3172.03 cm**-1
  46:      3174.51 cm**-1
  47:      3246.51 cm**-1
  48:      3265.73 cm**-1
  49:      3440.45 cm**-1
  50:      3519.03 cm**-1


------------
NORMAL MODES
------------

These modes are the cartesian displacements weighted by the diagonal matrix
M(i,i)=1/sqrt(m[i]) where m[i] is the mass of the displaced atom
Thus, these vectors are normalized but *not* orthogonal

                  0          1          2          3          4          5    
      0       0.000000   0.000000   0.000000   0.000000   0.000000   0.000000
      1       0.000000   0.000000   0.000000   0.000000   0.000000   0.000000
      2       0.000000   0.000000   0.000000   0.000000   0.000000   0.000000
      3       0.000000   0.000000   0.000000   0.000000   0.000000   0.000000
      4       0.000000   0.000000   0.000000   0.000000   0.000000   0.000000
      5       0.000000   0.000000   0.000000   0.000000   0.000000   0.000000
      6       0.000000   0.000000   0.000000   0.000000   0.000000   0.000000
      7       0.000000   0.000000   0.000000   0.000000   0.000000   0.000000
      8       0.000000   0.000000   0.000000   0.000000   0.000000   0.000000
      9       0.000000   0.000000   0.000000   0.000000   0.000000   0.000000
     10       0.000000   0.000000   0.000000   0.000000   0.000000   0.000000
     11       0.000000   0.000000   0.000000   0.000000   0.000000   0.000000
     12       0.000000   0.000000   0.000000   0.000000   0.000000   0.000000
     13       0.000000   0.000000   0.000000   0.000000   0.000000   0.000000
     14       0.000000   0.000000   0.000000   0.000000   0.000000   0.000000
     15       0.000000   0.000000   0.000000   0.000000   0.000000   0.000000
     16       0.000000   0.000000   0.000000   0.000000   0.000000   0.000000
     17       0.000000   0.000000   0.000000   0.000000   0.000000   0.000000
     18       0.000000   0.000000   0.000000   0.000000   0.000000   0.000000
     19       0.000000   0.000000   0.000000   0.000000   0.000000   0.000000
     20       0.000000   0.000000   0.000000   0.000000   0.000000   0.000000
     21       0.000000   0.000000   0.000000   0.000000   0.000000   0.000000
     22       0.000000   0.000000   0.000000   0.000000   0.000000   0.000000
     23       0.000000   0.000000   0.000000   0.000000   0.000000   0.000000
     24       0.000000   0.000000   0.000000   0.000000   0.000000   0.000000
     25       0.000000   0.000000   0.000000   0.000000   0.000000   0.000000
     26       0.000000   0.000000   0.000000   0.000000   0.000000   0.000000
     27       0.000000   0.000000   0.000000   0.000000   0.000000   0.000000
     28       0.000000   0.000000   0.000000   0.000000   0.000000   0.000000
     29       0.000000   0.000000   0.000000   0.000000   0.000000   0.000000
     30       0.000000   0.000000   0.000000   0.000000   0.000000   0.000000
     31       0.000000   0.000000   0.000000   0.000000   0.000000   0.000000
     32       0.000000   0.000000   0.000000   0.000000   0.000000   0.000000
     33       0.000000   0.000000   0.000000   0.000000   0.000000   0.000000
     34       0.000000   0.000000   0.000000   0.000000   0.000000   0.000000
     35       0.000000   0.000000   0.000000   0.000000   0.000000   0.000000
     36       0.000000   0.000000   0.000000   0.000000   0.000000   0.000000
     37       0.000000   0.000000   0.000000   0.000000   0.000000   0.000000
     38       0.000000   0.000000   0.000000   0.000000   0.000000   0.000000
     39       0.000000   0.000000   0.000000   0.000000   0.000000   0.000000
     40       0.000000   0.000000   0.000000   0.000000   0.000000   0.000000
     41       0.000000   0.000000   0.000000   0.000000   0.000000   0.000000
     42       0.000000   0.000000   0.000000   0.000000   0.000000   0.000000
     43       0.000000   0.000000   0.000000   0.000000   0.000000   0.000000
     44       0.000000   0.000000   0.000000   0.000000   0.000000   0.000000
     45       0.000000   0.000000   0.000000   0.000000   0.000000   0.000000
     46       0.000000   0.000000   0.000000   0.000000   0.000000   0.000000
     47       0.000000   0.000000   0.000000   0.000000   0.000000   0.000000
     48       0.000000   0.000000   0.000000   0.000000   0.000000   0.000000
     49       0.000000   0.000000   0.000000   0.000000   0.000000   0.000000
     50       0.000000   0.000000   0.000000   0.000000   0.000000   0.000000
                  6          7          8          9         10         11    
      0      -0.127477  -0.066310  -0.025643   0.062394   0.072579   0.018884
      1       0.082980   0.119611  -0.013655   0.050569   0.163661   0.009107
      2      -0.013410   0.000757   0.120560   0.014214  -0.137872  -0.005445
      3       0.127477  -0.066310   0.025643   0.062394  -0.072579   0.018884
      4      -0.082980   0.119611   0.013655   0.050569  -0.163661   0.009107
      5      -0.013410  -0.000757   0.120560  -0.014214  -0.137872   0.005445
      6      -0.038956   0.106081  -0.003345   0.013360  -0.020663  -0.014589
      7       0.014535  -0.008892   0.058717   0.075138  -0.189677  -0.006621
      8      -0.009264  -0.003074  -0.037211  -0.003225   0.003733   0.027389
      9       0.000000   0.096514   0.000000  -0.015039   0.000000   0.127876
     10      -0.000000   0.030184   0.000000  -0.174133   0.000000  -0.017129
     11      -0.047433  -0.000000  -0.108549   0.000000  -0.037613  -0.000000
     12       0.038956   0.106081   0.003345   0.013360   0.020663  -0.014589
     13      -0.014535  -0.008892  -0.058717   0.075138   0.189677  -0.006621
     14      -0.009264   0.003074  -0.037211   0.003225   0.003733  -0.027389
     15       0.058084  -0.058680  -0.171494  -0.068049  -0.163625  -0.112092
     16       0.015384  -0.135451  -0.180834   0.010526   0.018872  -0.033974
     17       0.053275  -0.000867  -0.027911  -0.004044   0.164568  -0.007199
     18      -0.058084  -0.058680   0.171494  -0.068049   0.163625  -0.112092
     19      -0.015384  -0.135451   0.180834   0.010526  -0.018872  -0.033974
     20       0.053275   0.000867  -0.027911   0.004044   0.164568   0.007199
     21      -0.417791  -0.287405  -0.165911   0.143277   0.135433  -0.116099
     22       0.019753   0.004195  -0.059579   0.083502   0.233428  -0.028291
     23       0.177958  -0.002479   0.176700  -0.001872  -0.058991   0.062603
     24      -0.192623  -0.057267  -0.034328   0.058262   0.091302  -0.003655
     25       0.376893   0.354233   0.157969  -0.047512   0.108076   0.148616
     26      -0.209492  -0.013207   0.078744   0.015092  -0.094483  -0.078304
     27       0.417791  -0.287405   0.165911   0.143277  -0.135433  -0.116099
     28      -0.019753   0.004195   0.059579   0.083502  -0.233428  -0.028291
     29       0.177958   0.002479   0.176700   0.001872  -0.058991  -0.062603
     30       0.192623  -0.057267   0.034328   0.058262  -0.091302  -0.003655
     31      -0.376893   0.354233  -0.157969  -0.047512  -0.108076   0.148616
     32      -0.209492   0.013207   0.078744  -0.015092  -0.094483   0.078304
     33      -0.075047   0.105235  -0.070657   0.027553  -0.041544  -0.105658
     34       0.075684  -0.006989  -0.084683   0.107450  -0.053359   0.067394
     35      -0.025306  -0.002273  -0.073715   0.004519  -0.003158  -0.011574
     36       0.000000   0.051211  -0.000000   0.386618  -0.000000   0.195204
     37      -0.000000   0.065993   0.000000  -0.474591   0.000000  -0.068538
     38      -0.040102  -0.000000  -0.053399   0.000000  -0.372061  -0.000000
     39      -0.000000   0.148592   0.000000  -0.419881   0.000000   0.060902
     40      -0.000000   0.065053   0.000000  -0.438941   0.000000  -0.065326
     41      -0.094250  -0.000000  -0.160454  -0.000000   0.276459  -0.000000
     42       0.075047   0.105235   0.070657   0.027553   0.041544  -0.105658
     43      -0.075684  -0.006989   0.084683   0.107450   0.053359   0.067394
     44      -0.025306   0.002273  -0.073715  -0.004519  -0.003158   0.011574
     45       0.109701  -0.305726  -0.366943  -0.199776  -0.353679   0.493353
     46       0.021406  -0.331983  -0.386610  -0.100107  -0.067803   0.373420
     47       0.088939  -0.006020   0.018815   0.000570   0.103192   0.077019
     48      -0.109701  -0.305726   0.366943  -0.199776   0.353679   0.493353
     49      -0.021406  -0.331983   0.386610  -0.100107   0.067803   0.373420
     50       0.088939   0.006020   0.018815  -0.000570   0.103192  -0.077019
                 12         13         14         15         16         17    
      0       0.103743   0.053696   0.057568   0.001233  -0.064110  -0.118074
      1       0.087040   0.154089  -0.059370   0.104496  -0.034293  -0.110616
      2      -0.071324   0.050108   0.038126   0.038362   0.027808   0.160620
      3      -0.103743   0.053696   0.057568  -0.001233  -0.064110  -0.118074
      4      -0.087040   0.154089  -0.059370  -0.104496  -0.034293  -0.110616
      5      -0.071324  -0.050108  -0.038126   0.038362  -0.027808  -0.160620
      6      -0.205831  -0.003781   0.044045   0.119626   0.129122   0.040220
      7       0.019780  -0.022289   0.010088   0.030746   0.008223   0.102316
      8      -0.032289  -0.115934  -0.021356  -0.150252   0.160474  -0.154498
      9      -0.000000  -0.212726  -0.131360  -0.000000  -0.103769   0.092752
     10       0.000000  -0.009286   0.028463   0.000000   0.012441   0.059377
     11       0.298659   0.000000   0.000000   0.019904   0.000000   0.000000
     12       0.205831  -0.003781   0.044045  -0.119626   0.129122   0.040220
     13      -0.019780  -0.022289   0.010088  -0.030746   0.008223   0.102316
     14      -0.032289   0.115934   0.021356  -0.150252  -0.160474   0.154498
     15       0.053089   0.024155   0.001047   0.056238  -0.053111   0.008990
     16      -0.141909  -0.158153   0.010406  -0.040079   0.019335  -0.034831
     17      -0.103406   0.002005   0.003168   0.046179   0.004221  -0.003435
     18      -0.053089   0.024155   0.001047  -0.056238  -0.053111   0.008990
     19       0.141909  -0.158153   0.010406   0.040079   0.019335  -0.034831
     20      -0.103406  -0.002005  -0.003168   0.046179  -0.004221   0.003435
     21      -0.109080   0.191725  -0.313467   0.265667   0.088422  -0.008441
     22      -0.013623   0.118789  -0.116434   0.296932  -0.041418  -0.128657
     23      -0.047800  -0.189854   0.339000   0.163520  -0.158014   0.010049
     24       0.170190   0.082832  -0.065790   0.039180   0.085217  -0.066298
     25       0.363330  -0.056972   0.294082  -0.054948  -0.041114  -0.198419
     26       0.027207   0.142953  -0.303056   0.151164   0.368749   0.314815
     27       0.109080   0.191725  -0.313467  -0.265667   0.088422  -0.008441
     28       0.013623   0.118789  -0.116434  -0.296932  -0.041418  -0.128657
     29      -0.047800   0.189854  -0.339000   0.163520   0.158014  -0.010049
     30      -0.170190   0.082832  -0.065790  -0.039180   0.085217  -0.066298
     31      -0.363330  -0.056972   0.294082   0.054948  -0.041114  -0.198419
     32       0.027207  -0.142953   0.303056   0.151164  -0.368749  -0.314815
     33       0.071144   0.126432   0.173838   0.220455   0.314763   0.128534
     34      -0.054283   0.024462   0.080798   0.125108   0.053404   0.349417
     35       0.097770  -0.055140   0.039791  -0.105573   0.254550  -0.116645
     36      -0.000000  -0.309806  -0.025005  -0.000000  -0.096572   0.279620
     37       0.000000   0.060616  -0.051366   0.000000   0.008823  -0.074626
     38       0.220451   0.000000   0.000000   0.308074   0.000000   0.000000
     39       0.000000  -0.089767  -0.230803   0.000000  -0.123455  -0.061855
     40       0.000000   0.070487  -0.035849   0.000000   0.000411  -0.041866
     41       0.314889   0.000000   0.000000   0.097481   0.000000   0.000000
     42      -0.071144   0.126432   0.173838  -0.220455   0.314763   0.128534
     43       0.054283   0.024462   0.080798  -0.125108   0.053404   0.349417
     44       0.097770   0.055140  -0.039791  -0.105573  -0.254550   0.116645
     45       0.079217   0.394208   0.022738   0.160314   0.200785   0.013460
     46      -0.280228   0.226695   0.050628  -0.149275   0.018322   0.137287
     47       0.046866  -0.091817  -0.018487   0.232803   0.208921  -0.170832
     48      -0.079217   0.394208   0.022738  -0.160314   0.200785   0.013460
     49       0.280228   0.226695   0.050628   0.149275   0.018322   0.137287
     50       0.046866   0.091817   0.018487   0.232803  -0.208921   0.170832
                 18         19         20         21         22         23    
      0      -0.072956   0.045656   0.037946   0.000913  -0.004846   0.026749
      1      -0.064214   0.040230   0.018208  -0.101689  -0.007512   0.018587
      2       0.000172   0.171140  -0.006249   0.041661  -0.091821   0.081581
      3       0.072956   0.045656  -0.037946  -0.000913  -0.004846   0.026749
      4       0.064214   0.040230  -0.018208   0.101689  -0.007512   0.018587
      5       0.000172  -0.171140  -0.006249   0.041661   0.091821  -0.081581
      6      -0.002898   0.001932   0.015248  -0.037928   0.081751  -0.040611
      7      -0.116227  -0.089453   0.024596  -0.006317  -0.054599  -0.079445
      8      -0.018963  -0.035895   0.012321  -0.175031  -0.112840   0.023826
      9       0.000000   0.037190  -0.000000   0.000000  -0.007569   0.009123
     10      -0.000000  -0.164025   0.000000  -0.000000   0.012441   0.119660
     11       0.004491   0.000000  -0.012745   0.091822  -0.000000   0.000000
     12       0.002898   0.001932  -0.015248   0.037928   0.081751  -0.040611
     13       0.116227  -0.089453  -0.024596   0.006317  -0.054599  -0.079445
     14      -0.018963   0.035895   0.012321  -0.175031   0.112840  -0.023826
     15       0.024380  -0.073383  -0.105494  -0.072125  -0.078804   0.011911
     16      -0.094628   0.118031  -0.054935   0.093015   0.083082   0.010927
     17       0.009667   0.005594  -0.001705   0.067551   0.021034   0.001747
     18      -0.024380  -0.073383   0.105494   0.072125  -0.078804   0.011911
     19       0.094628   0.118031   0.054935  -0.093015   0.083082   0.010927
     20       0.009667  -0.005594  -0.001705   0.067551  -0.021034  -0.001747
     21       0.015190   0.005782  -0.037917  -0.168508  -0.090745   0.000730
     22      -0.044457   0.017416  -0.001970  -0.205105  -0.171475   0.004678
     23      -0.056905   0.174232   0.034236   0.010890  -0.356719   0.089602
     24      -0.129733   0.040143   0.054471   0.007793   0.021260   0.143430
     25      -0.216664   0.084555   0.121405   0.117905  -0.053888   0.201012
     26      -0.104982   0.160427   0.014294   0.022127  -0.028982   0.330939
     27      -0.015190   0.005782   0.037917   0.168508  -0.090745   0.000730
     28       0.044457   0.017416   0.001970   0.205105  -0.171475   0.004678
     29      -0.056905  -0.174232   0.034236   0.010890   0.356719  -0.089602
     30       0.129733   0.040143  -0.054471  -0.007793   0.021260   0.143430
     31       0.216664   0.084555  -0.121405  -0.117905  -0.053888   0.201012
     32      -0.104982  -0.160427   0.014294   0.022127   0.028982  -0.330939
     33      -0.010289   0.097694   0.049450  -0.221432   0.242963  -0.111203
     34      -0.407984  -0.010323   0.064645  -0.008182  -0.328564  -0.339192
     35      -0.031352   0.005185   0.029147  -0.266293  -0.052373  -0.015188
     36       0.000000  -0.482265  -0.000000   0.000000   0.091271   0.368254
     37      -0.000000   0.220509   0.000000  -0.000000  -0.061665  -0.149582
     38      -0.186413   0.000000  -0.010753   0.277453  -0.000000   0.000000
     39      -0.000000   0.577681   0.000000  -0.000000  -0.067531  -0.370937
     40      -0.000000   0.186040   0.000000  -0.000000  -0.028417  -0.126883
     41       0.255848   0.000000  -0.066485   0.537134  -0.000000   0.000000
     42       0.010289   0.097694  -0.049450   0.221432   0.242963  -0.111203
     43       0.407984  -0.010323  -0.064645   0.008182  -0.328564  -0.339192
     44      -0.031352  -0.005185   0.029147  -0.266293   0.052373   0.015188
     45       0.325593  -0.142349   0.506586  -0.066304  -0.110134  -0.071755
     46      -0.086104   0.024818   0.442795   0.200551   0.262643   0.035317
     47       0.236043   0.060906  -0.002553  -0.027719  -0.163580  -0.088637
     48      -0.325593  -0.142349  -0.506586   0.066304  -0.110134  -0.071755
     49       0.086104   0.024818  -0.442795  -0.200551   0.262643   0.035317
     50       0.236043  -0.060906  -0.002553  -0.027719   0.163580   0.088637
                 24         25         26         27         28         29    
      0      -0.125610   0.013380  -0.040204   0.045991   0.041651   0.007197
      1       0.062499   0.005262   0.009960   0.024914   0.007117   0.054789
      2       0.005608   0.009587   0.018484  -0.015719  -0.007347   0.067197
      3       0.125610   0.013380  -0.040204  -0.045991  -0.041651   0.007197
      4      -0.062499   0.005262   0.009960  -0.024914  -0.007117   0.054789
      5       0.005608  -0.009587  -0.018484  -0.015719  -0.007347  -0.067197
      6      -0.100271  -0.008553   0.025393   0.018931   0.046203  -0.044261
      7       0.015775  -0.022916   0.015200   0.009071   0.004227  -0.084907
      8       0.001536  -0.064000  -0.020781   0.018453   0.056830   0.041624
      9      -0.000000  -0.006641   0.017103  -0.000000  -0.000000   0.041347
     10      -0.000000   0.032585   0.022236   0.000000   0.000000   0.059551
     11       0.035859  -0.000000   0.000000  -0.010544  -0.050906   0.000000
     12       0.100271  -0.008553   0.025393  -0.018931  -0.046203  -0.044261
     13      -0.015775  -0.022916   0.015200  -0.009071  -0.004227  -0.084907
     14       0.001536   0.064000   0.020781   0.018453   0.056830  -0.041624
     15      -0.052631  -0.004691  -0.020096  -0.005143   0.031960   0.009384
     16      -0.014258   0.032570  -0.006655   0.013076  -0.043337   0.009185
     17      -0.016083   0.039172   0.027163   0.008323  -0.032197  -0.015442
     18       0.052631  -0.004691  -0.020096   0.005143  -0.031960   0.009384
     19       0.014258   0.032570  -0.006655  -0.013076   0.043337   0.009185
     20      -0.016083  -0.039172  -0.027163   0.008323  -0.032197   0.015442
     21       0.253895  -0.080295   0.182091  -0.019338   0.000803  -0.023534
     22       0.191060  -0.117844   0.257275   0.007365   0.050696  -0.078154
     23      -0.143296  -0.154140   0.317242   0.012870   0.138891  -0.201274
     24      -0.119913   0.011028  -0.145034  -0.022560  -0.027858  -0.189074
     25      -0.382086   0.000910  -0.219591  -0.005549  -0.023228  -0.273537
     26       0.088076   0.008038  -0.182605  -0.178794  -0.165170  -0.335817
     27      -0.253895  -0.080295   0.182091   0.019338  -0.000803  -0.023534
     28      -0.191060  -0.117844   0.257275  -0.007365  -0.050696  -0.078154
     29      -0.143296   0.154140  -0.317242   0.012870   0.138891   0.201274
     30       0.119913   0.011028  -0.145034   0.022560   0.027858  -0.189074
     31       0.382086   0.000910  -0.219591   0.005549   0.023228  -0.273537
     32       0.088076  -0.008038   0.182605  -0.178794  -0.165170   0.335817
     33      -0.275984  -0.065789   0.147160  -0.196044  -0.391397   0.277475
     34       0.170763   0.065293  -0.368720  -0.385386   0.217836   0.229161
     35      -0.074805  -0.095404   0.024029  -0.091361  -0.139530   0.206814
     36       0.000000   0.100999   0.065430  -0.000000  -0.000000   0.187065
     37      -0.000000  -0.048718  -0.010286   0.000000   0.000000  -0.051162
     38       0.269279  -0.000000   0.000000   0.650000   0.089022   0.000000
     39      -0.000000  -0.094254  -0.021857   0.000000   0.000000  -0.130940
     40      -0.000000  -0.024469  -0.003843   0.000000   0.000000  -0.052907
     41      -0.084011  -0.000000   0.000000  -0.330588   0.645468   0.000000
     42       0.275984  -0.065789   0.147160   0.196044   0.391397   0.277475
     43      -0.170763   0.065293  -0.368720   0.385386  -0.217836   0.229161
     44      -0.074805   0.095404  -0.024029  -0.091361  -0.139530  -0.206814
     45       0.000894   0.176216   0.091117   0.004091   0.029078  -0.050385
     46       0.121208  -0.315897  -0.036889  -0.008463  -0.031110   0.010245
[...]
     49      -0.008465  -0.223076   0.140112  -0.042965  -0.034263   0.050537
     50      -0.015697  -0.358920   0.223140  -0.128023  -0.052548   0.035989
                 36         37         38         39         40         41    
      0      -0.012879   0.023973   0.027149  -0.003158  -0.007520  -0.002676
      1      -0.004720   0.031804   0.042225  -0.003290  -0.012586   0.043567
      2      -0.026765  -0.034921  -0.034550   0.002569  -0.006933  -0.028170
      3       0.012879  -0.023973   0.027149  -0.003158  -0.007520   0.002676
      4       0.004720  -0.031804   0.042225  -0.003290  -0.012586  -0.043567
      5      -0.026765  -0.034921   0.034550  -0.002569   0.006933  -0.028170
      6      -0.070617   0.002556  -0.000485   0.003268   0.003798  -0.000617
      7       0.086217  -0.013334   0.003238  -0.002153   0.000442   0.000053
      8       0.029540  -0.008836   0.004623  -0.002100  -0.052978   0.002509
      9       0.000000   0.000000   0.007384   0.078928   0.032740   0.000000
     10      -0.000000  -0.000000  -0.000871  -0.003589   0.009971  -0.000000
     11      -0.091298   0.008936  -0.000000  -0.000000   0.000000   0.000085
     12       0.070617  -0.002556  -0.000485   0.003268   0.003798   0.000617
     13      -0.086217   0.013334   0.003238  -0.002153   0.000442  -0.000053
     14       0.029540  -0.008836  -0.004623   0.002100   0.052978   0.002509
     15      -0.060153   0.005061   0.000563   0.000593  -0.024925  -0.000015
     16       0.093182  -0.007391  -0.001814  -0.003355   0.038230  -0.000232
     17      -0.039190   0.004786  -0.008842   0.051937  -0.403709   0.000190
     18       0.060153  -0.005061   0.000563   0.000593  -0.024925   0.000015
     19      -0.093182   0.007391  -0.001814  -0.003355   0.038230   0.000232
     20      -0.039190   0.004786   0.008842  -0.051937   0.403709   0.000190
     21       0.043438  -0.428023  -0.424288   0.041677   0.066379   0.288411
     22       0.126389  -0.094752  -0.085813   0.008411   0.021142  -0.535458
     23       0.218046   0.249847   0.246196  -0.019819  -0.019562   0.231416
     24       0.001546   0.091357   0.091466  -0.007592  -0.004969  -0.249654
     25      -0.090844  -0.423198  -0.429349   0.040055   0.064169   0.029144
     26       0.025989   0.225861   0.222824  -0.020073  -0.006680   0.099272
     27      -0.043438   0.428023  -0.424288   0.041677   0.066379  -0.288411
     28      -0.126389   0.094752  -0.085813   0.008411   0.021142   0.535458
     29       0.218046   0.249847  -0.246196   0.019819   0.019562   0.231416
     30      -0.001546  -0.091357   0.091466  -0.007592  -0.004969   0.249654
     31       0.090844   0.423198  -0.429349   0.040055   0.064169  -0.029144
     32       0.025989   0.225861  -0.222824   0.020073   0.006680   0.099272
     33       0.230042  -0.005096   0.008185  -0.011228   0.111482   0.009975
     34      -0.186835   0.019685   0.002347   0.026756  -0.164829  -0.001327
     35       0.174238  -0.014090   0.011568  -0.011628  -0.016552  -0.026610
     36       0.000000   0.000000  -0.061594  -0.529715  -0.267953   0.000000
     37      -0.000000  -0.000000   0.048402   0.438400   0.223941  -0.000000
     38       0.136891  -0.000200   0.000000   0.000000   0.000000   0.000809
     39      -0.000000  -0.000000  -0.056002  -0.575021  -0.311814  -0.000000
     40      -0.000000  -0.000000  -0.041211  -0.411626  -0.197483  -0.000000
     41       0.518930  -0.067314  -0.000000  -0.000000   0.000000  -0.002690
     42      -0.230042   0.005096   0.008185  -0.011228   0.111482  -0.009975
     43       0.186835  -0.019685   0.002347   0.026756  -0.164829   0.001327
     44       0.174238  -0.014090  -0.011568   0.011628   0.016552  -0.026610
     45       0.090219  -0.006614   0.007697  -0.027249   0.230872  -0.000102
     46      -0.139309   0.012315  -0.004826   0.041162  -0.313825   0.000369
     47       0.322051  -0.025592  -0.004016   0.002054   0.033118  -0.000225
     48      -0.090219   0.006614   0.007697  -0.027249   0.230872   0.000102
     49       0.139309  -0.012315  -0.004826   0.041162  -0.313825  -0.000369
     50       0.322051  -0.025592   0.004016  -0.002054  -0.033118  -0.000225
                 42         43         44         45         46         47    
      0       0.001791   0.060123   0.059291  -0.003468  -0.007164   0.000194
      1       0.041031  -0.021120  -0.024161   0.003232   0.006540   0.000129
      2      -0.030750  -0.013664  -0.012003   0.000264  -0.000663   0.000102
      3       0.001791  -0.060123   0.059291   0.003468  -0.007164  -0.000194
      4       0.041031   0.021120  -0.024161  -0.003232   0.006540  -0.000129
      5       0.030750  -0.013664   0.012003   0.000264   0.000663   0.000102
      6       0.001028   0.001048  -0.002947   0.026005  -0.026041   0.001731
      7      -0.000292   0.000163  -0.000165   0.001094  -0.000944  -0.000767
      8      -0.003224  -0.003349   0.007785  -0.054994   0.056112  -0.002218
      9      -0.000324   0.000000  -0.000768   0.000000   0.000744   0.000000
     10      -0.000043  -0.000000  -0.000574  -0.000000   0.000057  -0.000000
     11       0.000000   0.000654   0.000000   0.001355   0.000000   0.000459
     12       0.001028  -0.001048  -0.002947  -0.026005  -0.026041  -0.001731
     13      -0.000292  -0.000163  -0.000165  -0.001094  -0.000944   0.000767
     14       0.003224  -0.003349  -0.007785  -0.054994  -0.056112  -0.002218
     15       0.000042  -0.000077  -0.000078  -0.001002  -0.000671   0.030517
     16      -0.000237   0.000192   0.000059   0.001145   0.000330  -0.037764
     17       0.000162   0.000208   0.000715   0.002422   0.002123  -0.036878
     18       0.000042   0.000077  -0.000078   0.001002  -0.000671  -0.030517
     19      -0.000237  -0.000192   0.000059  -0.001145   0.000330   0.037764
     20      -0.000162   0.000208  -0.000715   0.002422  -0.002123  -0.036878
     21       0.279467  -0.105617  -0.126134   0.016518   0.032743  -0.000144
     22      -0.514790   0.213542   0.250404  -0.035669  -0.067216  -0.001351
     23       0.224147  -0.095981  -0.115144   0.015160   0.029155  -0.000143
     24      -0.294990  -0.601068  -0.576437   0.024941   0.056430  -0.000538
     25       0.032470   0.043417   0.041805  -0.002131  -0.004589  -0.000385
     26       0.117800   0.254631   0.247693  -0.011058  -0.025174   0.000021
     27       0.279467   0.105617  -0.126134  -0.016518   0.032743   0.000144
     28      -0.514790  -0.213542   0.250404   0.035669  -0.067216   0.001351
     29      -0.224147  -0.095981   0.115144   0.015160  -0.029155  -0.000143
     30      -0.294990   0.601068  -0.576437  -0.024941   0.056430   0.000538
     31       0.032470  -0.043417   0.041805   0.002131  -0.004589   0.000385
     32      -0.117800   0.254631  -0.247693  -0.011058   0.025174   0.000021
     33      -0.017257  -0.018140   0.039117  -0.299688   0.298788  -0.013948
     34       0.001015  -0.001813   0.002482  -0.016705   0.016507   0.001600
     35       0.041736   0.037821  -0.082988   0.634630  -0.628793   0.025953
     36      -0.001843   0.000000  -0.002343   0.000000  -0.003258   0.000000
     37      -0.003640  -0.000000  -0.001403  -0.000000  -0.010067  -0.000000
     38       0.000000   0.001262   0.000000  -0.005529   0.000000  -0.000394
     39       0.002413  -0.000000  -0.002746  -0.000000  -0.001594  -0.000000
     40       0.001064  -0.000000  -0.000363  -0.000000   0.009263  -0.000000
     41       0.000000   0.000534   0.000000  -0.005026   0.000000   0.000506
     42      -0.017257   0.018140   0.039117   0.299688   0.298788   0.013948
     43       0.001015   0.001813   0.002482   0.016705   0.016507  -0.001600
     44      -0.041736   0.037821   0.082988   0.634630   0.628793   0.025953
     45       0.000665   0.000873   0.000882   0.014285   0.012953  -0.347833
     46       0.000278  -0.000574  -0.000671  -0.016741  -0.015307   0.429762
     47      -0.000526  -0.001672  -0.002242  -0.019579  -0.019066   0.435565
     48       0.000665  -0.000873   0.000882  -0.014285   0.012953   0.347833
     49       0.000278   0.000574  -0.000671   0.016741  -0.015307  -0.429762
     50       0.000526  -0.001672   0.002242  -0.019579   0.019066   0.435565
                  48         49         50    
      0       0.000092  -0.000330   0.000405
      1      -0.000325  -0.000209   0.000420
      2       0.000099   0.000187  -0.000283
      3       0.000092  -0.000330   0.000405
      4      -0.000325  -0.000209   0.000420
      5      -0.000099  -0.000187   0.000283
      6       0.001843   0.000733  -0.000297
      7      -0.001748   0.000181  -0.000544
      8      -0.002490  -0.000616  -0.000011
      9       0.000856   0.056876  -0.005164
     10      -0.000600  -0.005132  -0.083325
     11       0.000000   0.000000   0.000000
     12       0.001843   0.000733  -0.000297
     13      -0.001748   0.000181  -0.000544
     14       0.002490   0.000616   0.000011
     15      -0.030485  -0.000252  -0.000332
     16       0.037966  -0.000053   0.000292
     17       0.046906   0.000631   0.000218
     18      -0.030485  -0.000252  -0.000332
     19       0.037966  -0.000053   0.000292
     20      -0.046906  -0.000631  -0.000218
     21      -0.000763  -0.000608   0.000459
     22       0.001970   0.001861  -0.001476
     23      -0.000759   0.000016   0.000909
     24       0.000254   0.000316  -0.000462
     25       0.000820  -0.001108   0.000228
     26      -0.000003  -0.000850   0.000501
     27      -0.000763  -0.000608   0.000459
     28       0.001970   0.001861  -0.001476
     29       0.000759  -0.000016  -0.000909
     30       0.000254   0.000316  -0.000462
     31       0.000820  -0.001108   0.000228
     32       0.000003   0.000850  -0.000501
     33      -0.012454  -0.004763   0.000331
     34       0.002682  -0.000171   0.001370
     35       0.023630   0.007567  -0.000732
     36      -0.000623  -0.395180   0.440295
     37      -0.000078  -0.550432   0.586119
     38       0.000000   0.000000   0.000000
     39       0.002373  -0.389767  -0.366708
     40      -0.002601   0.620887   0.566692
     41       0.000000   0.000000   0.000000
     42      -0.012454  -0.004763   0.000331
     43       0.002682  -0.000171   0.001370
     44      -0.023630  -0.007567   0.000732
     45       0.346328   0.000557   0.001431
     46      -0.427658   0.000805   0.000411
     47      -0.438005  -0.000511  -0.000774
     48       0.346328   0.000557   0.001431
     49      -0.427658   0.000805   0.000411
     50       0.438005   0.000511   0.000774


-----------
IR SPECTRUM
-----------

 Mode    freq (cm**-1)   T**2         TX         TY         TZ
-------------------------------------------------------------------
   6:       249.19    0.365706  (  0.000003  -0.000000  -0.604736)
   7:       382.83    0.760280  (  0.168859  -0.855434  -0.000000)
   8:       483.48    0.083628  ( -0.000001   0.000000   0.289185)
   9:       487.38    9.212739  ( -0.338764  -3.016285   0.000000)
  10:       691.71    0.457992  ( -0.000001   0.000000   0.676751)
  11:       740.97   44.234238  (  4.814786   4.588254  -0.000000)
  12:       777.39    0.000041  ( -0.000002   0.000000  -0.006425)
  13:       792.49   10.012652  (  2.332435   2.138316   0.000000)
  14:       810.33    0.914404  ( -0.048419   0.955018   0.000000)
  15:       865.11    3.632244  ( -0.000005   0.000000   1.905845)
  16:       898.49   20.980247  (  4.411439   1.232662   0.000000)
  17:       910.84    0.812973  (  0.646132   0.628877   0.000000)
  18:       959.79    0.990925  (  0.000004  -0.000000   0.995452)
  19:       967.03    2.564924  ( -0.618969   1.477092   0.000000)
  20:       981.74    1.351033  ( -0.000001   0.000000   1.162339)
  21:       986.90    1.351201  (  0.000002  -0.000000  -1.162412)
  22:       999.07    1.269390  (  0.789674  -0.803621  -0.000000)
  23:      1056.46    7.000242  ( -1.044413  -2.430935   0.000000)
  24:      1057.75    0.007687  ( -0.000004  -0.000000  -0.087677)
  25:      1125.07    3.980896  ( -0.395368  -1.955653  -0.000000)
  26:      1159.25    8.898838  (  1.853358  -2.337500   0.000000)
  27:      1183.99    0.300098  (  0.000005   0.000000   0.547812)
  28:      1212.39   17.608063  (  0.000004   0.000000   4.196196)
  29:      1227.44    4.929586  ( -1.633648  -1.503589   0.000000)
  30:      1239.42    4.226500  ( -0.000013   0.000000   2.055845)
  31:      1298.05    0.816313  ( -0.000001   0.000000  -0.903501)
  32:      1318.65    0.051314  ( -0.000006  -0.000000   0.226525)
  33:      1339.02   26.376954  ( -0.000003  -0.000000   5.135850)
  34:      1343.46    0.520850  (  0.219206   0.687604  -0.000000)
  35:      1352.60    1.020655  (  0.995730   0.170813   0.000000)
  36:      1390.97   55.866063  ( -0.000001  -0.000000   7.474360)
  37:      1486.99    3.701374  ( -0.000008  -0.000000   1.923896)
  38:      1502.79   14.623788  ( -2.767089  -2.639508  -0.000000)
  39:      1623.09   85.067352  ( -9.214326   0.404413  -0.000000)
  40:      1667.84    1.414720  ( -1.188928  -0.034216   0.000000)
  41:      3094.25    2.797996  ( -0.000004  -0.000000  -1.672721)
  42:      3102.46    3.833113  ( -0.769566   1.800245   0.000000)
  43:      3158.89    0.027638  ( -0.000007  -0.000000  -0.166247)
  44:      3169.60    0.808876  ( -0.152801  -0.886300   0.000000)
  45:      3172.03    0.703026  (  0.000000  -0.000000  -0.838467)
  46:      3174.51    0.173200  ( -0.247219   0.334788   0.000000)
  47:      3246.51    5.938907  ( -0.000000  -0.000000   2.436987)
  48:      3265.73    7.289132  (  1.653699  -2.134107   0.000000)
  49:      3440.45   50.984652  ( -7.132009  -0.345098   0.000000)
  50:      3519.03   57.454334  (  1.066841   7.504411   0.000000)

The first frequency considered to be a vibration is 6
The total number of vibrations considered is 45


--------------------------
THERMOCHEMISTRY AT 298.15K
--------------------------

Temperature         ... 298.15 K
Pressure            ... 1.00 atm
Total Mass          ... 96.15 AMU

Throughout the following assumptions are being made:
  (1) The electronic state is orbitally nondegenerate
  (2) There are no thermally accessible electronically excited states
  (3) Hindered rotations indicated by low frequency modes) are not
      treated as such but are treated as vibrations and this may
      case some error
  (4) All equations used are the standard statistical mechanics
      equations for an ideal gas
  (5) All vibrations are strinctly harmonic


------------
INNER ENERGY
------------

The inner energy is: U= E(el) + E(ZPE) + E(vib) + E(rot) + E(trans)
    E(el)   - is the total energy from the electronic structure calculation
              = E(kin-el) + E(nuc-el) + E(el-el) + E(nuc-nuc)
    E(ZPE)  - the the zero temperature vibrational energy from the frequency calculation
    E(vib)  - the the finite temperature correction to E(ZPE) due to population
              of excietd vibrational states
    E(rot)  - is the rotational thermal energy
    E(trans)- is the translational thermal energy

Summary of contributions to the inner energy U:
Electronic energy                ...   -288.89906777 Eh
Zero point energy                ...      0.15699632 Eh      98.52 kcal/mol
Thermal vibrational correction   ...      0.00234399 Eh       1.47 kcal/mol
Thermal rotational correction    ...      0.00141627 Eh       0.89 kcal/mol
Thermal translational correction ...      0.00141627 Eh       0.89 kcal/mol
-----------------------------------------------------------------------
Total thermal energy                   -288.73689492 Eh


Summary of corrections to the electronic energy:
(perhaps to be used in another calculation)
Total thermal correction                  0.00517653 Eh       3.25 kcal/mol
Non-thermal (ZPE) correction              0.15699632 Eh      98.52 kcal/mol
-----------------------------------------------------------------------
Total correction                          0.16217285 Eh     101.76 kcal/mol


--------
ENTHALPY
--------

The enthalpy is H = U + kB*T
                kB is Boltzmann's constant
Total free energy                 ...   -288.73689492 Eh 
Thermal Enthalpy correction       ...      0.00094421 Eh       0.59 kcal/mol
-----------------------------------------------------------------------
Total Enthalpy                    ...   -288.73595071 Eh


-------
ENTROPY
-------

The entropy contributions are T*S = T*(S(el)+S(vib)+S(rot)+S(trans)
     S(el)   - electronic entropy
     S(vib)  - vibrational entropy
     S(rot)  - rotational entropy
     S(trans)- translational entropy
The entropies will be listed as mutliplied by the temperature to get
units of energy

Electronic entropy                ...      0.00000000 Eh      0.00 kcal/mol
Vibrational entropy               ...      0.00327934 Eh      2.06 kcal/mol
Rotational entropy                ...      0.01153222 Eh      7.24 kcal/mol
Translational entropy             ...      0.01881568 Eh     11.81 kcal/mol
-----------------------------------------------------------------------
Final entropy term                ...      0.03362725 Eh     21.10 kcal/mol


CAUTION: The rotational entropy is not quite correctly treated here
         because it includes a symmetry number that is not yet correctly
         implemented in ORCA!
For a nonlinear molecule the correct rotational entropy is:
    S(rot) = R*(ln(qrot/sn)+1.5)
    R    = 8.31441 J/mol/K = 1.987191683e-3 kcal/mol/K
    qrot = 134943.3586198
    sn is the rotational symmetry number. We have assumed 3 here
       if it is different for your molecule then you should correct
       the printed rotational entropy by manually evaluating the equation
       as given above

For convenience we print out the resulting values for sn=1 - 12:
 sn= 1  qrot/sn=  134943.3586 T*S(rot)=     7.89 kcal/mol T*S(tot)=    21.75 kcal/mol
 sn= 2  qrot/sn=   67471.6793 T*S(rot)=     7.48 kcal/mol T*S(tot)=    21.34 kcal/mol
 sn= 3  qrot/sn=   44981.1195 T*S(rot)=     7.24 kcal/mol T*S(tot)=    21.10 kcal/mol
 sn= 4  qrot/sn=   33735.8397 T*S(rot)=     7.07 kcal/mol T*S(tot)=    20.93 kcal/mol
 sn= 5  qrot/sn=   26988.6717 T*S(rot)=     6.93 kcal/mol T*S(tot)=    20.80 kcal/mol
 sn= 6  qrot/sn=   22490.5598 T*S(rot)=     6.83 kcal/mol T*S(tot)=    20.69 kcal/mol
 sn= 7  qrot/sn=   19277.6227 T*S(rot)=     6.73 kcal/mol T*S(tot)=    20.60 kcal/mol
 sn= 8  qrot/sn=   16867.9198 T*S(rot)=     6.66 kcal/mol T*S(tot)=    20.52 kcal/mol
 sn= 9  qrot/sn=   14993.7065 T*S(rot)=     6.59 kcal/mol T*S(tot)=    20.45 kcal/mol
 sn=10  qrot/sn=   13494.3359 T*S(rot)=     6.52 kcal/mol T*S(tot)=    20.39 kcal/mol
 sn=11  qrot/sn=   12267.5781 T*S(rot)=     6.47 kcal/mol T*S(tot)=    20.33 kcal/mol
 sn=12  qrot/sn=   11245.2799 T*S(rot)=     6.42 kcal/mol T*S(tot)=    20.28 kcal/mol


-------------------
GIBBS FREE ENTHALPY
-------------------

The Gibbs free enthalpy is G = H - T*S

Total enthalpy                    ...   -288.73595071 Eh 
Total entropy correction          ...     -0.03362725 Eh    -21.10 kcal/mol
-----------------------------------------------------------------------
Final Gibbs free enthalpy         ...   -288.76957796 Eh

For completeness - the Gibbs free enthalpy minus the electronic energy
G-E(el)                           ...      0.12948981 Eh     81.26 kcal/mol


Timings for individual modules:

Sum of individual times         ...     2806.757 sec (=  46.779 min)
GTO integral calculation        ...        4.366 sec (=   0.073 min)   0.2 %
SCF iterations                  ...      228.798 sec (=   3.813 min)   8.2 %
SCF Gradient evaluation         ...       68.580 sec (=   1.143 min)   2.4 %
Geometry relaxation             ...        0.100 sec (=   0.002 min)   0.0 %
Analytical frequency calculation...     2504.914 sec (=  41.749 min)  89.2 %
                             ****ORCA TERMINATED NORMALLY****
TOTAL RUN TIME: 0 days 0 hours 46 minutes 48 seconds 311 msec
