
                                 *****************
                                 * O   R   C   A *
                                 *****************

           --- An Ab Initio, DFT and Semiempirical electronic structure package ---

                  #######################################################
                  #                        -***-                        #
                  #  Department of molecular theory and spectroscopy    #
                  #              Directorship: Frank Neese              #
                  # Max Planck Institute for Chemical Energy Conversion #
                  #                  D-45470 Muelheim/Ruhr              #
                  #                       Germany                       #
                  #                                                     #
                  #                  All rights reserved                #
                  #                        -***-                        #
                  #######################################################


                         Program Version 3.0.3 - RELEASE   -


 With contributions from (in alphabetic order):
   Ute Becker             : Parallelization
   Dmytro Bykov           : SCF Hessian
   Dmitry Ganyushin       : Spin-Orbit,Spin-Spin,Magnetic field MRCI
   Andreas Hansen         : Spin unrestricted coupled pair/coupled cluster methods
   Dimitrios Liakos       : Extrapolation schemes; parallel MDCI
   Robert Izsak           : Overlap fitted RIJCOSX, COSX-SCS-MP3
   Christian Kollmar      : KDIIS, OOCD, Brueckner-CCSD(T), CCSD density
   Simone Kossmann        : Meta GGA functionals, TD-DFT gradient, OOMP2, MP2 Hessian
   Taras Petrenko         : DFT Hessian,TD-DFT gradient, ASA and ECA modules, normal mode analysis, Resonance Raman, ABS, FL, XAS/XES, NRVS
   Christoph Reimann      : Effective Core Potentials
   Michael Roemelt        : Restricted open shell CIS
   Christoph Riplinger    : Improved optimizer, TS searches, QM/MM, DLPNO-CCSD
   Barbara Sandhoefer     : DKH picture change effects
   Igor Schapiro          : Molecular dynamics
   Kantharuban Sivalingam : CASSCF convergence, NEVPT2
   Boris Wezisla          : Elementary symmetry handling
   Frank Wennmohs         : Technical directorship


 We gratefully acknowledge several colleagues who have allowed us to
 interface, adapt or use parts of their codes:
   Stefan Grimme, W. Hujo, H. Kruse, T. Risthaus : VdW corrections, initial TS optimization,
                                                   DFT functionals, gCP
   Ed Valeev                                     : LibInt (2-el integral package), F12 methods
   Garnet Chan, S. Sharma, R. Olivares           : DMRG
   Ulf Ekstrom                                   : XCFun DFT Library
   Mihaly Kallay                                 : mrcc  (arbitrary order and MRCC methods)
   Andreas Klamt, Michael Diedenhofen            : otool_cosmo (COSMO solvation model)
   Frank Weinhold                                : gennbo (NPA and NBO analysis)
   Christopher J. Cramer and Donald G. Truhlar   : smd solvation model


 Your calculation uses the libint2 library for the computation of 2-el integrals
 For citations please refer to: http://libint.valeyev.net

 This ORCA versions uses:
   CBLAS   interface :  Fast vector & matrix operations
   LAPACKE interface :  Fast linear algebra routines
   SCALAPACK package :  Parallel linear algebra routines


Your calculation utilizes the basis: Ahlrichs-TZV
Cite in your paper:
H - Kr: A. Schaefer, H. Horn and R. Ahlrichs, J. Chem. Phys. 97, 2571 (1992).

The def2-TZV basis will be loaded
Cite in your paper:
 	F. Weigend, R. Ahlrichs, Phys. Chem. Chem. Phys. 2005, 7, 3297.

================================================================================
                                        WARNINGS
                       Please study these warnings very carefully!
================================================================================
Now building the actual basis set
WARNING: Geometry optimizations can change the point-group symmetry!

WARNING: Geometry Optimization
  ===> : Switching off AutoStart
         For restart on a previous wavefunction, please use MOREAD


INFO   : the flag for use of LIBINT has been found!

================================================================================
                                       INPUT FILE
================================================================================
NAME = 1602_+.inp
|  1> ! NORI PBE0 def2-TZVP UseSym TightOPT Freq TightSCF Grid3 FinalGrid5 XYZFile
|  2> % pal
|  3>     nprocs 8
|  4> end
|  5> %method
|  6>     SymThresh 5.0e-2
|  7> end
|  8> % geom 
|  9>     MaxIter 10
| 10> end 
| 11> % maxcore 2000
| 12> % output
| 13>     printlevel mini
| 14>     print[ P_Basis ] 0
| 15>     print[ P_SCFInfo ] 1
| 16>     print[ P_SCFIterInfo ] 1
| 17>     print[ P_OrbEn ] 0
| 18>     print[ P_Cartesian ] 0
| 19> end
| 20> % elprop
| 21>     Dipole false
| 22> end
| 23> *xyz 1 1
| 24>  C        0.2327028945     1.5472477075     0.5203112555 
| 25>  N        1.1431503384     0.5170768523    -0.1240105903 
| 26>  C        0.1896333383    -0.3672819502    -0.9786899340 
| 27>  C       -0.7839544292     0.7070666674    -1.4362393790 
| 28>  C       -1.1533249461     1.1137839598     0.0003500757 
| 29>  C       -1.4271891300    -0.2377665706     0.6169769941 
| 30>  C       -0.6212526559    -1.1261033752     0.0347537704 
| 31>  H        0.5244435768     2.5326654148     0.1600199686 
| 32>  H        0.3431202867     1.5040043206     1.6014205427 
| 33>  H        1.8478571894     0.9655625487    -0.7081904284 
| 34>  H        1.6294799026    -0.0476968952     0.5698982767 
| 35>  H        0.7749310967    -0.9201068995    -1.7092385871 
| 36>  H       -1.6226710784     0.2763422156    -1.9794165298 
| 37>  H       -0.3305289378     1.5060300530    -2.0293481452 
| 38>  H       -1.9127210640     1.8812511105     0.1273014210 
| 39>  H       -2.1052163942    -0.4127952658     1.4423496656 
| 40>  H       -0.4941599878    -2.1742498936     0.2688716234 
| 41> *
| 42> 
| 43>                          ****END OF INPUT****
================================================================================

The point group is C1 - hence turning off symmetry
If this is a round-off problem, please increase the symmetry
        detection tolerance (%method SymThresh)


                       *****************************
                       * Geometry Optimization Run *
                       *****************************

Geometry optimization settings:
Update method            Update   .... BFGS
Choice of coordinates    CoordSys .... Redundant Internals
Initial Hessian          InHess   .... Almoef's Model

Convergence Tolerances:
Energy Change            TolE     ....  1.0000e-06 Eh
Max. Gradient            TolMAXG  ....  1.0000e-04 Eh/bohr
RMS Gradient             TolRMSG  ....  3.0000e-05 Eh/bohr
Max. Displacement        TolMAXD  ....  1.0000e-03 bohr
RMS Displacement         TolRMSD  ....  6.0000e-04 bohr

------------------------------------------------------------------------------
                        ORCA OPTIMIZATION COORDINATE SETUP
------------------------------------------------------------------------------

The optimization will be done in new redundant internal coordinates
Making redundant internal coordinates   ...  (new redundants) done
Evaluating the initial hessian          ...  (Almloef) done
Evaluating the coordinates              ...  done
Calculating the B-matrix                .... done
Calculating the G-matrix                .... done
Diagonalizing the G-matrix              .... done
The first mode is                       ....   70
The number of degrees of freedom        ....   45

    -----------------------------------------------------------------
                    Redundant Internal Coordinates


    -----------------------------------------------------------------
         Definition                    Initial Value    Approx d2E/dq
    -----------------------------------------------------------------
      1. B(N   1,C   0)                  1.5183         0.349251   
      2. B(C   2,N   1)                  1.5562         0.303887   
      3. B(C   3,C   2)                  1.5203         0.387062   
      4. B(C   4,C   3)                  1.5381         0.362669   
      5. B(C   4,C   0)                  1.5425         0.356801   
      6. B(C   5,C   4)                  1.5106         0.401167   
      7. B(C   6,C   2)                  1.5035         0.411821   
      8. B(C   6,C   5)                  1.3333         0.769515   
      9. B(H   7,C   0)                  1.0890         0.361395   
     10. B(H   8,C   0)                  1.0876         0.363298   
     11. B(H   9,N   1)                  1.0193         0.418141   
     12. B(H  10,N   1)                  1.0183         0.419668   
     13. B(H  11,C   2)                  1.0871         0.363893   
     14. B(H  12,C   3)                  1.0881         0.362592   
     15. B(H  13,C   3)                  1.0935         0.355516   
     16. B(H  14,C   4)                  1.0871         0.363945   
     17. B(H  15,C   5)                  1.0824         0.370292   
     18. B(H  16,C   6)                  1.0815         0.371564   
     19. A(N   1,C   0,H   7)          108.2345         0.319040   
     20. A(N   1,C   0,H   8)          109.5104         0.319313   
     21. A(C   4,C   0,H   8)          114.5276         0.322351   
     22. A(N   1,C   0,C   4)          101.8351         0.354207   
     23. A(H   7,C   0,H   8)          109.7336         0.291408   
     24. A(C   4,C   0,H   7)          112.5489         0.322074   
     25. A(H   9,N   1,H  10)          107.7204         0.300135   
     26. A(C   2,N   1,H  10)          110.5906         0.316893   
     27. A(C   2,N   1,H   9)          111.0316         0.316705   
     28. A(C   0,N   1,H  10)          111.9317         0.324184   
     29. A(C   0,N   1,H   9)          111.0535         0.323990   
     30. A(C   0,N   1,C   2)          104.5501         0.342640   
     31. A(C   6,C   2,H  11)          119.1230         0.330139   
     32. A(C   3,C   2,H  11)          120.1235         0.326779   
     33. A(N   1,C   2,H  11)          109.1572         0.312256   
     34. A(C   3,C   2,C   6)          102.3649         0.371732   
     35. A(N   1,C   2,C   3)           98.9795         0.350764   
     36. A(N   1,C   2,C   6)          104.3048         0.354464   
     37. A(C   4,C   3,H  13)          114.3926         0.322069   
     38. A(C   2,C   3,H  13)          114.4573         0.325529   
     39. A(C   4,C   3,H  12)          112.6946         0.323111   
     40. A(C   2,C   3,H  12)          111.3525         0.326586   
     41. A(C   2,C   3,C   4)           93.4142         0.363714   
     42. A(H  12,C   3,H  13)          109.7600         0.290569   
     43. A(C   0,C   4,H  14)          112.9503         0.322445   
     44. A(C   3,C   4,C   5)          100.8486         0.365949   
     45. A(C   0,C   4,C   5)          106.0651         0.364928   
     46. A(C   0,C   4,C   3)           99.9837         0.358699   
     47. A(C   5,C   4,H  14)          117.2148         0.328721   
     48. A(C   3,C   4,H  14)          117.6142         0.323309   
     49. A(C   4,C   5,C   6)          107.9557         0.417357   
     50. A(C   6,C   5,H  15)          127.1493         0.367890   
     51. A(C   4,C   5,H  15)          124.7161         0.329660   
     52. A(C   2,C   6,C   5)          106.5047         0.419310   
     53. A(C   5,C   6,H  16)          128.4805         0.368107   
     54. A(C   2,C   6,H  16)          124.8691         0.331280   
     55. D(H   9,N   1,C   0,H   8)   -116.8291         0.011247   
     56. D(C   2,N   1,C   0,H   8)    123.3556         0.011247   
     57. D(C   2,N   1,C   0,H   7)   -117.0480         0.011247   
     58. D(H  10,N   1,C   0,C   4)   -118.0095         0.011247   
     59. D(H  10,N   1,C   0,H   8)      3.6072         0.011247   
     60. D(H   9,N   1,C   0,H   7)      2.7673         0.011247   
     61. D(H   9,N   1,C   0,C   4)    121.5542         0.011247   
     62. D(H  10,N   1,C   0,H   7)    123.2035         0.011247   
     63. D(C   2,N   1,C   0,C   4)      1.7389         0.011247   
     64. D(C   6,C   2,N   1,H   9)    170.7108         0.008702   
     65. D(C   3,C   2,N   1,H  10)    156.4948         0.008702   
     66. D(C   3,C   2,N   1,H   9)    -83.9803         0.008702   
     67. D(C   3,C   2,N   1,C   0)     35.8497         0.008702   
     68. D(H  11,C   2,N   1,H  10)    -77.1511         0.008702   
     69. D(H  11,C   2,N   1,H   9)     42.3738         0.008702   
     70. D(H  11,C   2,N   1,C   0)    162.2038         0.008702   
     71. D(C   6,C   2,N   1,H  10)     51.1859         0.008702   
     72. D(C   6,C   2,N   1,C   0)    -69.4592         0.008702   
     73. D(H  13,C   3,C   2,C   6)    167.8929         0.011919   
     74. D(H  13,C   3,C   2,N   1)     60.9914         0.011919   
     75. D(H  12,C   3,C   2,H  11)     67.7915         0.011919   
     76. D(H  12,C   3,C   2,C   6)    -66.8959         0.011919   
     77. D(C   4,C   3,C   2,C   6)     49.1005         0.011919   
     78. D(C   4,C   3,C   2,N   1)    -57.8011         0.011919   
     79. D(H  12,C   3,C   2,N   1)   -173.7975         0.011919   
     80. D(H  13,C   3,C   2,H  11)    -57.4196         0.011919   
     81. D(C   4,C   3,C   2,H  11)   -176.2121         0.011919   
     82. D(C   5,C   4,C   0,N   1)     66.0448         0.010227   
     83. D(C   3,C   4,C   0,H   7)     77.2621         0.010227   
     84. D(C   3,C   4,C   0,N   1)    -38.4072         0.010227   
     85. D(C   3,C   4,C   0,H   8)   -156.4868         0.010227   
     86. D(H  14,C   4,C   3,H  13)     63.9617         0.010542   
     87. D(H  14,C   4,C   3,H  12)    -62.3380         0.010542   
     88. D(C   5,C   4,C   3,H  13)   -167.3004         0.010542   
     89. D(C   5,C   4,C   3,H  12)     66.3998         0.010542   
     90. D(C   5,C   4,C   3,C   2)    -48.4545         0.010542   
     91. D(C   0,C   4,C   3,H  13)    -58.6477         0.010542   
     92. D(C   0,C   4,C   3,H  12)    175.0526         0.010542   
     93. D(C   0,C   4,C   3,C   2)     60.1982         0.010542   
     94. D(H  14,C   4,C   0,H   8)     77.6650         0.010227   
     95. D(H  14,C   4,C   0,H   7)    -48.5861         0.010227   
     96. D(H  14,C   4,C   3,C   2)   -177.1924         0.010542   
     97. D(H  14,C   4,C   0,N   1)   -164.2554         0.010227   
     98. D(C   5,C   4,C   0,H   8)    -52.0348         0.010227   
     99. D(C   5,C   4,C   0,H   7)   -178.2859         0.010227   
    100. D(H  15,C   5,C   4,H  14)    -22.9921         0.011940   
    101. D(H  15,C   5,C   4,C   3)   -151.9870         0.011940   
    102. D(H  15,C   5,C   4,C   0)    104.1923         0.011940   
    103. D(C   6,C   5,C   4,H  14)    161.5780         0.011940   
    104. D(C   6,C   5,C   4,C   3)     32.5831         0.011940   
    105. D(C   6,C   5,C   4,C   0)    -71.2375         0.011940   
    106. D(H  16,C   6,C   5,H  15)      0.1930         0.042445   
    107. D(H  16,C   6,C   5,C   4)    175.4797         0.042445   
    108. D(C   2,C   6,C   5,C   4)     -0.2506         0.042445   
    109. D(H  16,C   6,C   2,H  11)     16.0264         0.012557   
    110. D(H  16,C   6,C   2,C   3)    151.2833         0.012557   
    111. D(H  16,C   6,C   2,N   1)   -105.9607         0.012557   
    112. D(C   2,C   6,C   5,H  15)   -175.5373         0.042445   
    113. D(C   5,C   6,C   2,H  11)   -168.0471         0.012557   
    114. D(C   5,C   6,C   2,C   3)    -32.7902         0.012557   
    115. D(C   5,C   6,C   2,N   1)     69.9658         0.012557   
    -----------------------------------------------------------------

Number of atoms                         .... 17
Number of degrees of freedom            .... 115

         *************************************************************
         *                GEOMETRY OPTIMIZATION CYCLE   1            *
         *************************************************************


           ************************************************************
           *        Program running with 8 parallel MPI-processes     *
           *              working on a common directory               *
           ************************************************************
           ************************************************************
           *              Shut down parallel processing               *
           ************************************************************


           ************************************************************
           *        Program running with 8 parallel MPI-processes     *
           *              working on a common directory               *
           ************************************************************
------------
SCF SETTINGS
------------
Hamiltonian:
 Density Functional     Method          .... DFT(GTOs)
 Exchange Functional    Exchange        .... PBE
   PBE kappa parameter  XKappa          ....  0.804000
 Correlation Functional Correlation     .... PBE
 LDA part of GGA corr.  LDAOpt          .... PW91-LDA
 Gradients option       PostSCFGGA      .... off
 Hybrid DFT is turned on
   Fraction HF Exchange ScalHFX         ....  0.250000
   Scaling of DF-GGA-X  ScalDFX         ....  0.750000
   Scaling of DF-GGA-C  ScalDFC         ....  1.000000
   Scaling of DF-LDA-C  ScalLDAC        ....  1.000000
   Perturbative correction              ....  0.000000
   NL short-range parameter             ....  6.900000


General Settings:
 Integral files         IntName         .... 1602_+
 Hartree-Fock type      HFTyp           .... RHF
 Total Charge           Charge          ....    1
 Multiplicity           Mult            ....    1
 Number of Electrons    NEL             ....   52
 Basis Dimension        Dim             ....  277
 Nuclear Repulsion      ENuc            ....    323.5579768747 Eh

Convergence Acceleration:
 DIIS                   CNVDIIS         .... on
   Start iteration      DIISMaxIt       ....    12
   Startup error        DIISStart       ....  0.200000
   # of expansion vecs  DIISMaxEq       ....     5
   Bias factor          DIISBfac        ....   1.050
   Max. coefficient     DIISMaxC        ....  10.000
 Newton-Raphson         CNVNR           .... off
 SOSCF                  CNVSOSCF        .... on
   Start iteration      SOSCFMaxIt      ....   150
   Startup grad/error   SOSCFStart      ....  0.003300
 Level Shifting         CNVShift        .... on
   Level shift para.    LevelShift      ....    0.2500
   Turn off err/grad.   ShiftErr        ....    0.0010
 Zerner damping         CNVZerner       .... off
 Static damping         CNVDamp         .... on
   Fraction old density DampFac         ....    0.7000
   Max. Damping (<1)    DampMax         ....    0.9800
   Min. Damping (>=0)   DampMin         ....    0.0000
   Turn off err/grad.   DampErr         ....    0.1000
 Fernandez-Rico         CNVRico         .... off

SCF Procedure:
 Maximum # iterations   MaxIter         ....   125
 SCF integral mode      SCFMode         .... Direct
   Integral package                     .... LIBINT
 Reset frequeny         DirectResetFreq ....    20
 Integral Threshold     Thresh          ....  2.500e-11 Eh
 Primitive CutOff       TCut            ....  2.500e-12 Eh

Convergence Tolerance:
 Convergence Check Mode ConvCheckMode   .... Total+1el-Energy
 Energy Change          TolE            ....  1.000e-08 Eh
 1-El. energy change                    ....  1.000e-05 Eh
 Orbital Gradient       TolG            ....  1.000e-05
 Orbital Rotation angle TolX            ....  1.000e-05
 DIIS Error             TolErr          ....  5.000e-07


Diagonalization of the overlap matrix:
Smallest eigenvalue                        ... 3.439e-05
Time for diagonalization                   ...    0.780 sec
Threshold for overlap eigenvalues          ... 1.000e-08
Number of eigenvalues below threshold      ... 0
Time for construction of square roots      ...    0.020 sec
Total time needed                          ...    0.800 sec

-------------------
DFT GRID GENERATION
-------------------

General Integration Accuracy     IntAcc      ...  4.340
Radial Grid Type                 RadialGrid  ... Gauss-Chebyshev
Angular Grid (max. acc.)         AngularGrid ... Lebedev-194
Angular grid pruning method      GridPruning ... 3 (G Style)
Weight generation scheme         WeightScheme... Becke
Basis function cutoff            BFCut       ...    1.0000e-11
Integration weight cutoff        WCut        ...    1.0000e-14
Grids for H and He will be reduced by one unit

# of grid points (after initial pruning)     ...  38278 (   0.0 sec)
# of grid points (after weights+screening)   ...  34714 (   0.2 sec)
nearest neighbour list constructed           ...    0.0 sec
Grid point re-assignment to atoms done       ...    0.0 sec
Grid point division into batches done        ...    0.1 sec
Reduced shell lists constructed in    0.2 sec

Total number of grid points                  ...    34714
Total number of batches                      ...      550
Average number of points per batch           ...       63
Average number of grid points per atom       ...     2042
Average number of shells per batch           ...   101.73 (86.95%)
Average number of basis functions per batch  ...   256.64 (92.65%)
Average number of large shells per batch     ...    88.07 (86.57%)
Average number of large basis fcns per batch ...   223.70 (87.16%)
Maximum spatial batch extension              ...   2.68,  2.12,  2.50 au
Average spatial batch extension              ...   0.15,  0.14,  0.15 au

Time for grid setup =    0.930 sec

Loading Hartree-Fock densities                     ... done
Calculating cut-offs                               ... done
Setting up the integral package                    ... done
Initializing the effective Hamiltonian             ... done
Starting the Coulomb interaction                   ... done (   0.1 sec)
Reading the grid                                   ... done
Mapping shells                                     ... done
Starting the XC term evaluation                    ... done (   0.7 sec)
  promolecular density results
     # of electrons  =     52.995254245
     EX              =    -40.250381552
     EC              =     -1.771740770
     EX+EC           =    -42.022122322
Transforming the Hamiltonian                       ... done (   0.0 sec)
Diagonalizing the Hamiltonian                      ... done (   0.8 sec)
Back transforming the eigenvectors                 ... done (   0.0 sec)
Now organizing SCF variables                       ... done
--------------
SCF ITERATIONS
--------------
ITER       Energy         Delta-E        Max-DP      RMS-DP      [F,P]     Damp
               ***  Starting incremental Fock matrix formation  ***
  0   -288.7712598869   0.000000000000 0.02608318  0.00090397  0.1230188 0.7000
  1   -288.8270814081  -0.055821521237 0.01822208  0.00069171  0.0642342 0.7000
                               ***Turning on DIIS***
  2   -288.8515842345  -0.024502826317 0.03452982  0.00125359  0.0319348 0.0000
  3   -288.8887564747  -0.037172240275 0.01662000  0.00047513  0.0335871 0.0000
  4   -288.8971682664  -0.008411791692 0.00457375  0.00014825  0.0046891 0.0000
                      *** Initiating the SOSCF procedure ***
                           *** Shutting down DIIS ***
                      *** Re-Reading the Fockian *** 
                      *** Removing any level shift *** 
ITER      Energy       Delta-E        Grad      Rot      Max-DP    RMS-DP
  5   -288.89744125  -0.0002729840  0.000463  0.000463  0.002675  0.000084
               *** Restarting incremental Fock matrix formation ***
  6   -288.89745043  -0.0000091768  0.000440  0.001642  0.000898  0.000022
  7   -288.89744455   0.0000058772  0.000873  0.001244  0.000593  0.000012
  8   -288.89745457  -0.0000100212  0.000078  0.000222  0.000122  0.000003
  9   -288.89745445   0.0000001217  0.000098  0.000131  0.000065  0.000002
 10   -288.89745469  -0.0000002367  0.000003  0.000004  0.000015  0.000000
 11   -288.89745469   0.0000000003  0.000004  0.000003  0.000006  0.000000
                 **** Energy Check signals convergence ****
              ***Rediagonalizing the Fockian in SOSCF/NRSCF***

               *****************************************************
               *                     SUCCESS                       *
               *           SCF CONVERGED AFTER  12 CYCLES          *
               *****************************************************

Setting up the final grid:

General Integration Accuracy     IntAcc      ...  5.010
Radial Grid Type                 RadialGrid  ... Gauss-Chebyshev
Angular Grid (max. acc.)         AngularGrid ... Lebedev-434
Angular grid pruning method      GridPruning ... 3 (G Style)
Weight generation scheme         WeightScheme... Becke
Basis function cutoff            BFCut       ...    1.0000e-11
Integration weight cutoff        WCut        ...    1.0000e-14
Grids for H and He will be reduced by one unit

# of grid points (after initial pruning)     ... 141698 (   0.0 sec)
# of grid points (after weights+screening)   ... 126995 (   3.1 sec)
nearest neighbour list constructed           ...    0.0 sec
Grid point re-assignment to atoms done       ...    0.0 sec
Grid point division into batches done        ...    0.8 sec
Reduced shell lists constructed in    1.0 sec

Total number of grid points                  ...   126995
Total number of batches                      ...     1992
Average number of points per batch           ...       63
Average number of grid points per atom       ...     7470
Average number of shells per batch           ...   100.69 (86.06%)
Average number of basis functions per batch  ...   255.48 (92.23%)
Average number of large shells per batch     ...    86.14 (85.54%)
Average number of large basis fcns per batch ...   218.58 (85.56%)
Maximum spatial batch extension              ...   2.07,  2.40,  2.51 au
Average spatial batch extension              ...   0.10,  0.10,  0.10 au

Final grid set up in    6.3 sec
Final integration                            ... done (   1.7 sec)
Change in XC energy                          ...     0.000376842
Integrated number of electrons               ...    52.000042646
Previous integrated no of electrons          ...    51.999919812
Total Energy       :         -288.89707784 Eh           -7861.28915 eV
  Last Energy change         ...    1.8775e-10  Tolerance :   1.0000e-08
  Last MAX-Density change    ...    3.6005e-06  Tolerance :   1.0000e-07
             **** THE GBW FILE WAS UPDATED (1602_+.gbw) ****
             **** DENSITY FILE WAS UPDATED (1602_+.scfp.tmp) ****
             **** ENERGY FILE WAS UPDATED (1602_+.en.tmp) ****
Total SCF time: 0 days 0 hours 2 min 42 sec 
           ************************************************************
           *              Shut down parallel processing               *
           ************************************************************

-------------------------   --------------------
FINAL SINGLE POINT ENERGY      -288.897077844178
-------------------------   --------------------



           ************************************************************
           *        Program running with 8 parallel MPI-processes     *
           *              working on a common directory               *
           ************************************************************
------------------------------------------------------------------------------
                         ORCA SCF GRADIENT CALCULATION
------------------------------------------------------------------------------

Gradient of the Kohn-Sham DFT energy:
Kohn-Sham wavefunction type      ... RKS
Hartree-Fock exchange scaling    ...    0.250
Number of operators              ...    1
Number of atoms                  ...   17
Basis set dimensions             ...  277
Integral neglect threshold       ... 2.5e-11
Integral primitive cutoff        ... 2.5e-12

Nuclear repulsion gradient       ... done
One Electron Gradient            ... done
Pre-screening matrix             ... done
Starting the two electron gradient:
Two electron gradient done
Exchange-correlation gradient    ... done

------------------
CARTESIAN GRADIENT
------------------

   1   C   :   -0.000117347   -0.000147126    0.000161395
   2   N   :    0.000051279   -0.000138500    0.000078132
   3   C   :   -0.000133020   -0.000063512   -0.000079788
   4   C   :   -0.000194395   -0.000026304    0.000144752
   5   C   :    0.000112092    0.000029257   -0.000000441
   6   C   :   -0.000053840   -0.000081956    0.000013931
   7   C   :    0.000001996    0.000041608    0.000068366
   8   H   :   -0.000101681    0.000012566   -0.000034140
   9   H   :    0.000079416    0.000242678   -0.000025572
  10   H   :    0.000032906    0.000019863   -0.000069247
  11   H   :    0.000029269    0.000026890   -0.000064047
  12   H   :    0.000072412   -0.000017284   -0.000018214
  13   H   :    0.000006212   -0.000000102   -0.000105735
  14   H   :    0.000092250   -0.000043423    0.000068282
  15   H   :    0.000049386   -0.000024549   -0.000100389
  16   H   :    0.000047328    0.000106594   -0.000044675
  17   H   :    0.000025737    0.000063300    0.000007389

Norm of the cartesian gradient     ...    0.000601341
RMS gradient                       ...    0.000084205
MAX gradient                       ...    0.000242678

-------
TIMINGS
-------

Total SCF gradient time            ...       65.276 sec

One electron gradient       ....       0.125 sec  (  0.2%)
Prescreening matrices       ....       0.520 sec  (  0.8%)
Two electron gradient       ....      29.880 sec  ( 45.8%)
XC gradient                 ....       3.087 sec  (  4.7%)
           ************************************************************
           *              Shut down parallel processing               *
           ************************************************************
------------------------------------------------------------------------------
                         ORCA GEOMETRY RELAXATION STEP
------------------------------------------------------------------------------

Reading the OPT-File                    .... done
Getting information on internals        .... done
Copying old internal coords+grads       .... done
Making the new internal coordinates     .... (new redundants).... done
Validating the new internal coordinates .... (new redundants).... done
Calculating the B-matrix                .... done
Calculating the G,G- and P matrices     .... done
Transforming gradient to internals      .... done
Projecting the internal gradient        .... done
Number of atoms                         ....  17
Number of internal coordinates          .... 115
Current Energy                          ....  -288.897077844 Eh
Current gradient norm                   ....     0.000601341 Eh/bohr
Maximum allowed component of the step   ....  0.300
Current trust radius                    ....  0.300
Evaluating the initial hessian          ....  (Almloef) done
Projecting the Hessian                  .... done
Forming the augmented Hessian           .... done
Diagonalizing the augmented Hessian     .... done
Last element of RFO vector              ....  0.999990906
Lowest eigenvalues of augmented Hessian:
 -0.000001097  0.012773138  0.020330853  0.026591240  0.030787918
Length of the computed step             ....  0.004264664
The final length of the internal step   ....  0.004264664
Converting the step to cartesian space:
 Initial RMS(Int)=    0.0003976819
Transforming coordinates:
 Iter   0:  RMS(Cart)=    0.0006934178 RMS(Int)=    0.0003976854
 Iter   1:  RMS(Cart)=    0.0000002857 RMS(Int)=    0.0000001578
 Iter   2:  RMS(Cart)=    0.0000000002 RMS(Int)=    0.0000000001
done
Storing new coordinates                 .... done

                                .--------------------.
          ----------------------|Geometry convergence|---------------------
          Item                value                 Tolerance   Converged
          -----------------------------------------------------------------
          RMS gradient        0.00004318            0.00003000      NO
          MAX gradient        0.00024551            0.00010000      NO
          RMS step            0.00039768            0.00060000      YES
          MAX step            0.00117801            0.00100000      NO
          ....................................................
          Max(Bonds)      0.0004      Max(Angles)    0.02
          Max(Dihed)        0.07      Max(Improp)    0.00
          -----------------------------------------------------------------

The optimization has not yet converged - more geometry cycles are needed


    ---------------------------------------------------------------------------
                         Redundant Internal Coordinates
                            (Angstroem and degrees)

        Definition                    Value    dE/dq     Step     New-Value
    ----------------------------------------------------------------------------
     1. B(N   1,C   0)                1.5183 -0.000110  0.0001    1.5185   
     2. B(C   2,N   1)                1.5562  0.000021 -0.0000    1.5562   
     3. B(C   3,C   2)                1.5203 -0.000023  0.0000    1.5204   
     4. B(C   4,C   3)                1.5381  0.000109 -0.0002    1.5379   
     5. B(C   4,C   0)                1.5425  0.000026 -0.0001    1.5424   
     6. B(C   5,C   4)                1.5106  0.000026 -0.0000    1.5106   
     7. B(C   6,C   2)                1.5035  0.000068 -0.0001    1.5034   
     8. B(C   6,C   5)                1.3333  0.000035 -0.0000    1.3333   
     9. B(H   7,C   0)                1.0890 -0.000079  0.0001    1.0891   
    10. B(H   8,C   0)                1.0876  0.000246 -0.0004    1.0872   
    11. B(H   9,N   1)                1.0193 -0.000066  0.0001    1.0194   
    12. B(H  10,N   1)                1.0183 -0.000008  0.0000    1.0183   
    13. B(H  11,C   2)                1.0871 -0.000064  0.0001    1.0872   
    14. B(H  12,C   3)                1.0881  0.000084 -0.0001    1.0880   
    15. B(H  13,C   3)                1.0935  0.000096 -0.0001    1.0933   
    16. B(H  14,C   4)                1.0871  0.000104 -0.0002    1.0870   
    17. B(H  15,C   5)                1.0824  0.000119 -0.0002    1.0822   
    18. B(H  16,C   6)                1.0815  0.000024 -0.0000    1.0814   
    19. A(N   1,C   0,H   7)          108.23 -0.000043    0.01    108.25   
    20. A(N   1,C   0,H   8)          109.51  0.000025   -0.01    109.50   
    21. A(C   4,C   0,H   8)          114.53 -0.000040    0.01    114.54   
    22. A(N   1,C   0,C   4)          101.84  0.000020   -0.00    101.83   
    23. A(H   7,C   0,H   8)          109.73  0.000043   -0.02    109.71   
    24. A(C   4,C   0,H   7)          112.55 -0.000008    0.01    112.56   
    25. A(H   9,N   1,H  10)          107.72  0.000034   -0.01    107.71   
    26. A(C   2,N   1,H  10)          110.59 -0.000019    0.01    110.60   
    27. A(C   2,N   1,H   9)          111.03  0.000008   -0.01    111.02   
    28. A(C   0,N   1,H  10)          111.93 -0.000040    0.02    111.95   
    29. A(C   0,N   1,H   9)          111.05 -0.000020    0.00    111.06   
    30. A(C   0,N   1,C   2)          104.55  0.000034   -0.00    104.55   
    31. A(C   6,C   2,H  11)          119.12  0.000025   -0.01    119.11   
    32. A(C   3,C   2,H  11)          120.12 -0.000020    0.00    120.13   
    33. A(N   1,C   2,H  11)          109.16  0.000016    0.00    109.16   
    34. A(C   3,C   2,C   6)          102.36  0.000041   -0.02    102.34   
    35. A(N   1,C   2,C   3)           98.98 -0.000014    0.02     98.99   
    36. A(N   1,C   2,C   6)          104.30 -0.000062    0.02    104.33   
    37. A(C   4,C   3,H  13)          114.39 -0.000023    0.02    114.41   
    38. A(C   2,C   3,H  13)          114.46  0.000011   -0.00    114.46   
    39. A(C   4,C   3,H  12)          112.69 -0.000029    0.01    112.71   
    40. A(C   2,C   3,H  12)          111.35  0.000019   -0.01    111.34   
    41. A(C   2,C   3,C   4)           93.41 -0.000005   -0.00     93.41   
    42. A(H  12,C   3,H  13)          109.76  0.000023   -0.01    109.75   
    43. A(C   0,C   4,H  14)          112.95  0.000042   -0.01    112.94   
    44. A(C   3,C   4,C   5)          100.85  0.000016   -0.01    100.84   
    45. A(C   0,C   4,C   5)          106.07 -0.000047    0.02    106.08   
    46. A(C   0,C   4,C   3)           99.98 -0.000025    0.01     99.99   
    47. A(C   5,C   4,H  14)          117.21  0.000002    0.00    117.22   
    48. A(C   3,C   4,H  14)          117.61  0.000002   -0.00    117.61   
    49. A(C   4,C   5,C   6)          107.96 -0.000000   -0.00    107.95   
    50. A(C   6,C   5,H  15)          127.15 -0.000005    0.00    127.15   
    51. A(C   4,C   5,H  15)          124.72  0.000003    0.00    124.72   
    52. A(C   2,C   6,C   5)          106.50 -0.000003   -0.00    106.50   
    53. A(C   5,C   6,H  16)          128.48 -0.000044    0.01    128.49   
    54. A(C   2,C   6,H  16)          124.87  0.000047   -0.01    124.86   
    55. D(H   9,N   1,C   0,H   8)   -116.83 -0.000019    0.03   -116.80   
    56. D(C   2,N   1,C   0,H   8)    123.36 -0.000039    0.04    123.40   
    57. D(C   2,N   1,C   0,H   7)   -117.05  0.000001    0.02   -117.03   
    58. D(H  10,N   1,C   0,C   4)   -118.01  0.000008    0.02   -117.99   
    59. D(H  10,N   1,C   0,H   8)      3.61 -0.000016    0.02      3.63   
    60. D(H   9,N   1,C   0,H   7)      2.77  0.000021    0.01      2.78   
    61. D(H   9,N   1,C   0,C   4)    121.55  0.000005    0.02    121.58   
    62. D(H  10,N   1,C   0,H   7)    123.20  0.000024    0.01    123.21   
    63. D(C   2,N   1,C   0,C   4)      1.74 -0.000016    0.03      1.77   
    64. D(C   6,C   2,N   1,H   9)    170.71  0.000005   -0.01    170.70   
    65. D(C   3,C   2,N   1,H  10)    156.49 -0.000007   -0.01    156.48   
    66. D(C   3,C   2,N   1,H   9)    -83.98  0.000029   -0.03    -84.01   
    67. D(C   3,C   2,N   1,C   0)     35.85  0.000031   -0.03     35.81   
    68. D(H  11,C   2,N   1,H  10)    -77.15 -0.000031    0.00    -77.15   
    69. D(H  11,C   2,N   1,H   9)     42.37  0.000005   -0.02     42.36   
    70. D(H  11,C   2,N   1,C   0)    162.20  0.000007   -0.02    162.18   
    71. D(C   6,C   2,N   1,H  10)     51.19 -0.000031    0.00     51.19   
    72. D(C   6,C   2,N   1,C   0)    -69.46  0.000006   -0.02    -69.48   
    73. D(H  13,C   3,C   2,C   6)    167.89 -0.000075    0.06    167.95   
    74. D(H  13,C   3,C   2,N   1)     60.99 -0.000015    0.03     61.03   
    75. D(H  12,C   3,C   2,H  11)     67.79  0.000041   -0.01     67.78   
    76. D(H  12,C   3,C   2,C   6)    -66.90 -0.000019    0.03    -66.86   
    77. D(C   4,C   3,C   2,C   6)     49.10 -0.000049    0.04     49.14   
    78. D(C   4,C   3,C   2,N   1)    -57.80  0.000011    0.02    -57.78   
    79. D(H  12,C   3,C   2,N   1)   -173.80  0.000040    0.01   -173.79   
    80. D(H  13,C   3,C   2,H  11)    -57.42 -0.000015    0.02    -57.40   
    81. D(C   4,C   3,C   2,H  11)   -176.21  0.000011    0.00   -176.21   
    82. D(C   5,C   4,C   0,N   1)     66.04  0.000029   -0.03     66.02   
    83. D(C   3,C   4,C   0,H   7)     77.26 -0.000010   -0.01     77.25   
    84. D(C   3,C   4,C   0,N   1)    -38.41  0.000033   -0.03    -38.43   
    85. D(C   3,C   4,C   0,H   8)   -156.49  0.000009   -0.02   -156.51   
    86. D(H  14,C   4,C   3,H  13)     63.96  0.000011   -0.01     63.95   
    87. D(H  14,C   4,C   3,H  12)    -62.34  0.000024   -0.02    -62.36   
    88. D(C   5,C   4,C   3,H  13)   -167.30  0.000027   -0.02   -167.32   
    89. D(C   5,C   4,C   3,H  12)     66.40  0.000040   -0.03     66.37   
    90. D(C   5,C   4,C   3,C   2)    -48.45  0.000029   -0.01    -48.47   
    91. D(C   0,C   4,C   3,H  13)    -58.65 -0.000025   -0.00    -58.65   
    92. D(C   0,C   4,C   3,H  12)    175.05 -0.000011   -0.01    175.04   
    93. D(C   0,C   4,C   3,C   2)     60.20 -0.000023    0.00     60.20   
    94. D(H  14,C   4,C   0,H   8)     77.66  0.000001   -0.02     77.65   
    95. D(H  14,C   4,C   0,H   7)    -48.59 -0.000018   -0.01    -48.59   
    96. D(H  14,C   4,C   3,C   2)   -177.19  0.000013   -0.01   -177.20   
    97. D(H  14,C   4,C   0,N   1)   -164.26  0.000025   -0.02   -164.28   
    98. D(C   5,C   4,C   0,H   8)    -52.03  0.000005   -0.02    -52.06   
    99. D(C   5,C   4,C   0,H   7)   -178.29 -0.000014   -0.01   -178.30   
   100. D(H  15,C   5,C   4,H  14)    -22.99 -0.000020    0.04    -22.95   
   101. D(H  15,C   5,C   4,C   3)   -151.99 -0.000036    0.05   -151.94   
   102. D(H  15,C   5,C   4,C   0)    104.19 -0.000002    0.04    104.23   
   103. D(C   6,C   5,C   4,H  14)    161.58  0.000008   -0.03    161.55   
   104. D(C   6,C   5,C   4,C   3)     32.58 -0.000008   -0.02     32.56   
   105. D(C   6,C   5,C   4,C   0)    -71.24  0.000026   -0.03    -71.27   
   106. D(H  16,C   6,C   5,H  15)      0.19 -0.000001   -0.01      0.18   
   107. D(H  16,C   6,C   5,C   4)    175.48 -0.000029    0.06    175.54   
   108. D(C   2,C   6,C   5,C   4)     -0.25 -0.000034    0.05     -0.20   
   109. D(H  16,C   6,C   2,H  11)     16.03 -0.000001   -0.04     15.99   
   110. D(H  16,C   6,C   2,C   3)    151.28  0.000033   -0.07    151.22   
   111. D(H  16,C   6,C   2,N   1)   -105.96  0.000013   -0.05   -106.01   
   112. D(C   2,C   6,C   5,H  15)   -175.54 -0.000006   -0.02   -175.56   
   113. D(C   5,C   6,C   2,H  11)   -168.05 -0.000001   -0.02   -168.07   
   114. D(C   5,C   6,C   2,C   3)    -32.79  0.000033   -0.06    -32.85   
   115. D(C   5,C   6,C   2,N   1)     69.97  0.000013   -0.04     69.93   
    ----------------------------------------------------------------------------

         *************************************************************
         *                GEOMETRY OPTIMIZATION CYCLE   2            *
         *************************************************************
---------------------------------
CARTESIAN COORDINATES (ANGSTROEM)
---------------------------------
  C      1.326645   -0.000257    0.710512
  N      0.000163    0.000310    1.449542
  C     -1.060002   -0.297139    0.349889
  C     -0.253966   -1.264855   -0.501825
  C      0.878398   -0.252704   -0.743617
  C      0.086858    0.966305   -1.155100
  C     -1.073636    0.943515   -0.499084
  H      1.937151   -0.810780    1.106187
  H      1.830916    0.949823    0.869071
  H     -0.015039   -0.715388    2.175305
  H     -0.187181    0.896840    1.894683
  H     -1.982579   -0.624548    0.822908
  H     -0.785470   -1.526371   -1.414434
  H      0.056906   -2.174901    0.018345
  H      1.695960   -0.556788   -1.392155
  H      0.453485    1.747861   -1.807773
  H     -1.859149    1.686786   -0.494942

----------------------------
CARTESIAN COORDINATES (A.U.)
----------------------------
  NO LB      ZA    FRAG    MASS        X           Y           Z
   0 C     6.0000    0    12.011          2.506996219884891         -0.000486579150840          1.342672760008280
   1 N     7.0000    0    14.007          0.000308495329733          0.000585532999505          2.739237670399558
   2 C     6.0000    0    12.011         -2.003113491476546         -0.561511036944756          0.661194453866092
   3 C     6.0000    0    12.011         -0.479925875656028         -2.390229408734363         -0.948312621285067
   4 C     6.0000    0    12.011          1.659932115450953         -0.477541685581541         -1.405233123124618
   5 C     6.0000    0    12.011          0.164138493336130          1.826052162457051         -2.182822420496009
   6 C     6.0000    0    12.011         -2.028877230912201          1.782985160481932         -0.943131553958048
   7 H     1.0000    0     1.008          3.660685643449799         -1.532151460915701          2.090390116895482
   8 H     1.0000    0     1.008          3.459929031451201          1.794904476375182          1.642305730146871
   9 H     1.0000    0     1.008         -0.028420367585065         -1.351888155372263          4.110730084402760
  10 H     1.0000    0     1.008         -0.353720794018405          1.694782198631654          3.580432645690966
  11 H     1.0000    0     1.008         -3.746531939984930         -1.180224595181989          1.555071364940408
  12 H     1.0000    0     1.008         -1.484323911147478         -2.884423003049263         -2.672893074880191
  13 H     1.0000    0     1.008          0.107536950505850         -4.109966332402617          0.034666756093450
  14 H     1.0000    0     1.008          3.204900741573763         -1.052177575751649         -2.630791107326492
  15 H     1.0000    0     1.008          0.856962632162127          3.302978592472062         -3.416195240267371
  16 H     1.0000    0     1.008         -3.513281926969904          3.187563520536093         -0.935304701335623

--------------------------------
INTERNAL COORDINATES (ANGSTROEM)
--------------------------------
 C      0   0   0   0.000000     0.000     0.000
 N      1   0   0   1.518460     0.000     0.000
 C      2   1   0   1.556169   104.545     0.000
 C      3   2   1   1.520390    98.995    35.815
 C      4   3   2   1.537908    93.413   302.216
 C      5   4   3   1.510575   100.843   311.531
 C      6   5   4   1.333275   107.955    32.559
 H      1   2   3   1.089138   108.248   242.974
 H      1   2   3   1.087236   109.504   123.396
 H      2   1   3   1.019405   111.055   119.803
 H      2   1   3   1.018339   111.949   240.234
 H      3   2   1   1.087241   109.160   162.182
 H      4   3   2   1.087999   111.339   186.211
 H      4   3   2   1.093344   114.457    61.026
 H      5   4   3   1.086957   117.613   182.796
 H      6   5   4   1.082232   124.718   208.059
 H      7   6   5   1.081434   128.489   175.543

---------------------------
INTERNAL COORDINATES (A.U.)
---------------------------
 C      0   0   0   0.000000     0.000     0.000
 N      1   0   0   2.869473     0.000     0.000
 C      2   1   0   2.940734   104.545     0.000
 C      3   2   1   2.873121    98.995    35.815
 C      4   3   2   2.906225    93.413   302.216
 C      5   4   3   2.854573   100.843   311.531
 C      6   5   4   2.519525   107.955    32.559
 H      1   2   3   2.058173   108.248   242.974
 H      1   2   3   2.054578   109.504   123.396
 H      2   1   3   1.926396   111.055   119.803
 H      2   1   3   1.924383   111.949   240.234
 H      3   2   1   2.054588   109.160   162.182
 H      4   3   2   2.056021   111.339   186.211
 H      4   3   2   2.066121   114.457    61.026
 H      5   4   3   2.054051   117.613   182.796
 H      6   5   4   2.045122   124.718   208.059
 H      7   6   5   2.043614   128.489   175.543



           ************************************************************
           *        Program running with 8 parallel MPI-processes     *
           *              working on a common directory               *
           ************************************************************
           ************************************************************
           *              Shut down parallel processing               *
           ************************************************************


           ************************************************************
           *        Program running with 8 parallel MPI-processes     *
           *              working on a common directory               *
           ************************************************************

Diagonalization of the overlap matrix:
Smallest eigenvalue                        ... 3.437e-05
Time for diagonalization                   ...    0.709 sec
Threshold for overlap eigenvalues          ... 1.000e-08
Number of eigenvalues below threshold      ... 0
Time for construction of square roots      ...    0.013 sec
Total time needed                          ...    0.722 sec

-------------------
DFT GRID GENERATION
-------------------

General Integration Accuracy     IntAcc      ...  4.340
Radial Grid Type                 RadialGrid  ... Gauss-Chebyshev
Angular Grid (max. acc.)         AngularGrid ... Lebedev-194
Angular grid pruning method      GridPruning ... 3 (G Style)
Weight generation scheme         WeightScheme... Becke
Basis function cutoff            BFCut       ...    1.0000e-11
Integration weight cutoff        WCut        ...    1.0000e-14
Grids for H and He will be reduced by one unit

# of grid points (after initial pruning)     ...  38278 (   0.0 sec)
# of grid points (after weights+screening)   ...  34713 (   0.1 sec)
nearest neighbour list constructed           ...    0.0 sec
Grid point re-assignment to atoms done       ...    0.0 sec
Grid point division into batches done        ...    0.1 sec
Reduced shell lists constructed in    0.1 sec

Total number of grid points                  ...    34713
Total number of batches                      ...      550
Average number of points per batch           ...       63
Average number of grid points per atom       ...     2042
Average number of shells per batch           ...   101.71 (86.94%)
Average number of basis functions per batch  ...   256.60 (92.64%)
Average number of large shells per batch     ...    88.00 (86.52%)
Average number of large basis fcns per batch ...   223.54 (87.12%)
Maximum spatial batch extension              ...   2.68,  2.12,  2.50 au
Average spatial batch extension              ...   0.15,  0.14,  0.15 au

Time for grid setup =    0.804 sec

--------------
SCF ITERATIONS
--------------
ITER       Energy         Delta-E        Max-DP      RMS-DP      [F,P]     Damp
               ***  Starting incremental Fock matrix formation  ***
                      *** Initiating the SOSCF procedure ***
                      *** Re-Reading the Fockian *** 
                      *** Removing any level shift *** 
ITER      Energy       Delta-E        Grad      Rot      Max-DP    RMS-DP
  0   -288.89745464 -288.8974546386  0.000079  0.000079  0.000139  0.000005
               *** Restarting incremental Fock matrix formation ***
  1   -288.89745512  -0.0000004829  0.000036  0.000105  0.000049  0.000002
  2   -288.89745518  -0.0000000583  0.000018  0.000061  0.000036  0.000001
  3   -288.89745518   0.0000000032  0.000026  0.000040  0.000015  0.000001
  4   -288.89745519  -0.0000000108  0.000003  0.000009  0.000005  0.000000
  5   -288.89745519   0.0000000005  0.000003  0.000005  0.000003  0.000000
                  ***Gradient check signals convergence***
              ***Rediagonalizing the Fockian in SOSCF/NRSCF***

               *****************************************************
               *                     SUCCESS                       *
               *           SCF CONVERGED AFTER   6 CYCLES          *
               *****************************************************

Setting up the final grid:

General Integration Accuracy     IntAcc      ...  5.010
Radial Grid Type                 RadialGrid  ... Gauss-Chebyshev
Angular Grid (max. acc.)         AngularGrid ... Lebedev-434
Angular grid pruning method      GridPruning ... 3 (G Style)
Weight generation scheme         WeightScheme... Becke
Basis function cutoff            BFCut       ...    1.0000e-11
Integration weight cutoff        WCut        ...    1.0000e-14
Grids for H and He will be reduced by one unit

# of grid points (after initial pruning)     ... 141698 (   0.0 sec)
# of grid points (after weights+screening)   ... 126996 (   3.3 sec)
nearest neighbour list constructed           ...    0.0 sec
Grid point re-assignment to atoms done       ...    0.0 sec
Grid point division into batches done        ...    0.8 sec
Reduced shell lists constructed in    1.0 sec

Total number of grid points                  ...   126996
Total number of batches                      ...     1992
Average number of points per batch           ...       63
Average number of grid points per atom       ...     7470
Average number of shells per batch           ...   100.68 (86.05%)
Average number of basis functions per batch  ...   255.41 (92.21%)
Average number of large shells per batch     ...    86.02 (85.45%)
Average number of large basis fcns per batch ...   218.34 (85.48%)
Maximum spatial batch extension              ...   2.08,  2.40,  2.51 au
Average spatial batch extension              ...   0.10,  0.10,  0.10 au

Final grid set up in    6.6 sec
Final integration                            ... done (   1.8 sec)
Change in XC energy                          ...     0.000376680
Integrated number of electrons               ...    52.000042663
Previous integrated no of electrons          ...    51.999916098
Total Energy       :         -288.89707851 Eh           -7861.28917 eV
  Last Energy change         ...   -1.3488e-09  Tolerance :   1.0000e-08
  Last MAX-Density change    ...    5.8379e-06  Tolerance :   1.0000e-07
             **** THE GBW FILE WAS UPDATED (1602_+.gbw) ****
             **** DENSITY FILE WAS UPDATED (1602_+.scfp.tmp) ****
             **** ENERGY FILE WAS UPDATED (1602_+.en.tmp) ****
Total SCF time: 0 days 0 hours 1 min 22 sec 
           ************************************************************
           *              Shut down parallel processing               *
           ************************************************************

-------------------------   --------------------
FINAL SINGLE POINT ENERGY      -288.897078508668
-------------------------   --------------------



           ************************************************************
           *        Program running with 8 parallel MPI-processes     *
           *              working on a common directory               *
           ************************************************************
------------------------------------------------------------------------------
                         ORCA SCF GRADIENT CALCULATION
------------------------------------------------------------------------------

Gradient of the Kohn-Sham DFT energy:
Kohn-Sham wavefunction type      ... RKS
Hartree-Fock exchange scaling    ...    0.250
Number of operators              ...    1
Number of atoms                  ...   17
Basis set dimensions             ...  277
Integral neglect threshold       ... 2.5e-11
Integral primitive cutoff        ... 2.5e-12

Nuclear repulsion gradient       ... done
One Electron Gradient            ... done
Pre-screening matrix             ... done
Starting the two electron gradient:
Two electron gradient done
Exchange-correlation gradient    ... done

------------------
CARTESIAN GRADIENT
------------------

   1   C   :   -0.000011000    0.000035152    0.000108184
   2   N   :    0.000028409   -0.000020775    0.000061903
   3   C   :   -0.000024048    0.000004155   -0.000056092
   4   C   :   -0.000137417   -0.000017725    0.000022633
   5   C   :    0.000097808   -0.000013375   -0.000055172
   6   C   :    0.000008182    0.000003574    0.000028324
   7   C   :   -0.000034205   -0.000038338    0.000000582
   8   H   :   -0.000021699   -0.000016937   -0.000010750
   9   H   :   -0.000020706    0.000018264   -0.000039270
  10   H   :    0.000021389   -0.000016944   -0.000014708
  11   H   :    0.000012148    0.000012423   -0.000027773
  12   H   :    0.000010993   -0.000022306    0.000001244
  13   H   :    0.000031818    0.000007711   -0.000025451
  14   H   :    0.000035932    0.000027131    0.000015402
  15   H   :   -0.000021546   -0.000002804   -0.000021293
  16   H   :    0.000002022    0.000015770    0.000014060
  17   H   :    0.000021921    0.000025025   -0.000001823

Norm of the cartesian gradient     ...    0.000264945
RMS gradient                       ...    0.000037100
MAX gradient                       ...    0.000137417

-------
TIMINGS
-------

Total SCF gradient time            ...       68.195 sec

One electron gradient       ....       0.179 sec  (  0.3%)
Prescreening matrices       ....       0.600 sec  (  0.9%)
Two electron gradient       ....      60.077 sec  ( 88.1%)
XC gradient                 ....       6.091 sec  (  8.9%)
           ************************************************************
           *              Shut down parallel processing               *
           ************************************************************
------------------------------------------------------------------------------
                         ORCA GEOMETRY RELAXATION STEP
------------------------------------------------------------------------------

Reading the OPT-File                    .... done
Getting information on internals        .... done
Copying old internal coords+grads       .... done
Making the new internal coordinates     .... (new redundants).... done
Validating the new internal coordinates .... (new redundants).... done
Calculating the B-matrix                .... done
Calculating the G,G- and P matrices     .... done
Transforming gradient to internals      .... done
Projecting the internal gradient        .... done
Number of atoms                         ....  17
Number of internal coordinates          .... 115
Current Energy                          ....  -288.897078509 Eh
Current gradient norm                   ....     0.000264945 Eh/bohr
Maximum allowed component of the step   ....  0.300
Current trust radius                    ....  0.300
Updating the Hessian (BFGS)             .... done
Forming the augmented Hessian           .... done
Diagonalizing the augmented Hessian     .... done
Last element of RFO vector              ....  0.999996758
Lowest eigenvalues of augmented Hessian:
 -0.000000242  0.012615626  0.018310121  0.027079065  0.031738924
Length of the computed step             ....  0.002546480
The final length of the internal step   ....  0.002546480
Converting the step to cartesian space:
 Initial RMS(Int)=    0.0002374605
Transforming coordinates:
 Iter   0:  RMS(Cart)=    0.0003580284 RMS(Int)=    0.0002374644
 Iter   1:  RMS(Cart)=    0.0000000804 RMS(Int)=    0.0000000515
done
Storing new coordinates                 .... done

                                .--------------------.
          ----------------------|Geometry convergence|---------------------
          Item                value                 Tolerance   Converged
          -----------------------------------------------------------------
          Energy change      -0.00000066            0.00000100      YES
          RMS gradient        0.00001373            0.00003000      YES
          MAX gradient        0.00004963            0.00010000      YES
          RMS step            0.00023746            0.00060000      YES
          MAX step            0.00066956            0.00100000      YES
          ....................................................
          Max(Bonds)      0.0001      Max(Angles)    0.02
          Max(Dihed)        0.04      Max(Improp)    0.00
          -----------------------------------------------------------------

                    ***********************HURRAY********************
                    ***        THE OPTIMIZATION HAS CONVERGED     ***
                    *************************************************


    ---------------------------------------------------------------------------
                         Redundant Internal Coordinates

                          --- Optimized Parameters ---  
                            (Angstroem and degrees)

        Definition                    OldVal   dE/dq     Step     FinalVal
    ----------------------------------------------------------------------------
     1. B(N   1,C   0)                1.5185 -0.000039  0.0001    1.5185   
     2. B(C   2,N   1)                1.5562  0.000050 -0.0001    1.5560   
     3. B(C   3,C   2)                1.5204 -0.000020  0.0001    1.5205   
     4. B(C   4,C   3)                1.5379  0.000033 -0.0001    1.5378   
     5. B(C   4,C   0)                1.5424  0.000031 -0.0001    1.5424   
     6. B(C   5,C   4)                1.5106 -0.000008 -0.0000    1.5106   
     7. B(C   6,C   2)                1.5034  0.000000 -0.0000    1.5034   
     8. B(C   6,C   5)                1.3333  0.000010 -0.0000    1.3333   
     9. B(H   7,C   0)                1.0891 -0.000004  0.0000    1.0892   
    10. B(H   8,C   0)                1.0872  0.000001 -0.0001    1.0872   
    11. B(H   9,N   1)                1.0194 -0.000001  0.0000    1.0194   
    12. B(H  10,N   1)                1.0183 -0.000001  0.0000    1.0183   
    13. B(H  11,C   2)                1.0872 -0.000002  0.0000    1.0873   
    14. B(H  12,C   3)                1.0880  0.000003 -0.0000    1.0880   
    15. B(H  13,C   3)                1.0933 -0.000004 -0.0000    1.0933   
    16. B(H  14,C   4)                1.0870 -0.000003 -0.0000    1.0869   
    17. B(H  15,C   5)                1.0822  0.000003 -0.0000    1.0822   
    18. B(H  16,C   6)                1.0814  0.000001 -0.0000    1.0814   
    19. A(N   1,C   0,H   7)          108.25 -0.000016    0.00    108.25   
    20. A(N   1,C   0,H   8)          109.50  0.000011   -0.00    109.50   
    21. A(C   4,C   0,H   8)          114.54 -0.000028    0.01    114.55   
    22. A(N   1,C   0,C   4)          101.83  0.000015   -0.00    101.83   
    23. A(H   7,C   0,H   8)          109.71  0.000023   -0.02    109.70   
    24. A(C   4,C   0,H   7)          112.56 -0.000006    0.00    112.56   
    25. A(H   9,N   1,H  10)          107.71  0.000015   -0.01    107.69   
    26. A(C   2,N   1,H  10)          110.60 -0.000005    0.00    110.60   
    27. A(C   2,N   1,H   9)          111.02  0.000012   -0.01    111.02   
    28. A(C   0,N   1,H  10)          111.95 -0.000009    0.01    111.96   
    29. A(C   0,N   1,H   9)          111.06 -0.000013    0.00    111.06   
    30. A(C   0,N   1,C   2)          104.55 -0.000000   -0.00    104.54   
    31. A(C   6,C   2,H  11)          119.11  0.000013   -0.01    119.10   
    32. A(C   3,C   2,H  11)          120.13 -0.000010    0.00    120.13   
    33. A(N   1,C   2,H  11)          109.16  0.000003    0.00    109.16   
    34. A(C   3,C   2,C   6)          102.34  0.000003   -0.01    102.33   
    35. A(N   1,C   2,C   3)           98.99  0.000005    0.01     99.00   
    36. A(N   1,C   2,C   6)          104.33 -0.000018    0.01    104.34   
    37. A(C   4,C   3,H  13)          114.41 -0.000023    0.02    114.43   
    38. A(C   2,C   3,H  13)          114.46 -0.000003    0.00    114.46   
    39. A(C   4,C   3,H  12)          112.71 -0.000013    0.01    112.72   
    40. A(C   2,C   3,H  12)          111.34  0.000015   -0.01    111.32   
    41. A(C   2,C   3,C   4)           93.41  0.000007   -0.00     93.41   
    42. A(H  12,C   3,H  13)          109.75  0.000015   -0.01    109.74   
    43. A(C   0,C   4,H  14)          112.94  0.000018   -0.01    112.92   
    44. A(C   3,C   4,C   5)          100.84 -0.000006   -0.00    100.84   
    45. A(C   0,C   4,C   5)          106.08 -0.000024    0.02    106.10   
    46. A(C   0,C   4,C   3)           99.99 -0.000004    0.00     99.99   
    47. A(C   5,C   4,H  14)          117.22  0.000008   -0.00    117.22   
    48. A(C   3,C   4,H  14)          117.61  0.000003    0.00    117.61   
    49. A(C   4,C   5,C   6)          107.95  0.000005   -0.00    107.95   
    50. A(C   6,C   5,H  15)          127.15 -0.000007    0.00    127.16   
    51. A(C   4,C   5,H  15)          124.72  0.000002    0.00    124.72   
    52. A(C   2,C   6,C   5)          106.50  0.000000    0.00    106.50   
    53. A(C   5,C   6,H  16)          128.49 -0.000029    0.01    128.50   
    54. A(C   2,C   6,H  16)          124.86  0.000028   -0.01    124.86   
    55. D(H   9,N   1,C   0,H   8)   -116.80 -0.000016    0.02   -116.78   
    56. D(C   2,N   1,C   0,H   8)    123.40 -0.000023    0.03    123.42   
    57. D(C   2,N   1,C   0,H   7)   -117.03  0.000002    0.01   -117.02   
    58. D(H  10,N   1,C   0,C   4)   -117.99  0.000007    0.00   -117.99   
    59. D(H  10,N   1,C   0,H   8)      3.63 -0.000012    0.02      3.65   
    60. D(H   9,N   1,C   0,H   7)      2.78  0.000009    0.00      2.78   
    61. D(H   9,N   1,C   0,C   4)    121.58  0.000003    0.01    121.58   
    62. D(H  10,N   1,C   0,H   7)    123.21  0.000013   -0.00    123.21   
    63. D(C   2,N   1,C   0,C   4)      1.77 -0.000005    0.01      1.79   
    64. D(C   6,C   2,N   1,H   9)    170.70  0.000011   -0.01    170.69   
    65. D(C   3,C   2,N   1,H  10)    156.48 -0.000011    0.00    156.48   
    66. D(C   3,C   2,N   1,H   9)    -84.01  0.000012   -0.01    -84.02   
    67. D(C   3,C   2,N   1,C   0)     35.81  0.000003   -0.01     35.80   
    68. D(H  11,C   2,N   1,H  10)    -77.15 -0.000018    0.01    -77.14   
    69. D(H  11,C   2,N   1,H   9)     42.36  0.000005   -0.00     42.35   
    70. D(H  11,C   2,N   1,C   0)    162.18 -0.000004   -0.00    162.18   
    71. D(C   6,C   2,N   1,H  10)     51.19 -0.000011    0.01     51.19   
    72. D(C   6,C   2,N   1,C   0)    -69.48  0.000002   -0.01    -69.49   
    73. D(H  13,C   3,C   2,C   6)    167.95 -0.000028    0.03    167.98   
    74. D(H  13,C   3,C   2,N   1)     61.03 -0.000011    0.02     61.05   
    75. D(H  12,C   3,C   2,H  11)     67.78  0.000017   -0.01     67.77   
    76. D(H  12,C   3,C   2,C   6)    -66.86  0.000003    0.00    -66.86   
    77. D(C   4,C   3,C   2,C   6)     49.14 -0.000005    0.01     49.15   
    78. D(C   4,C   3,C   2,N   1)    -57.78  0.000012    0.00    -57.78   
    79. D(H  12,C   3,C   2,N   1)   -173.79  0.000020   -0.00   -173.79   
    80. D(H  13,C   3,C   2,H  11)    -57.40 -0.000014    0.01    -57.39   
    81. D(C   4,C   3,C   2,H  11)   -176.21  0.000009   -0.01   -176.22   
    82. D(C   5,C   4,C   0,N   1)     66.02  0.000005   -0.01     66.00   
    83. D(C   3,C   4,C   0,H   7)     77.25  0.000007   -0.01     77.24   
    84. D(C   3,C   4,C   0,N   1)    -38.43  0.000020   -0.02    -38.45   
    85. D(C   3,C   4,C   0,H   8)   -156.51  0.000010   -0.02   -156.52   
    86. D(H  14,C   4,C   3,H  13)     63.95  0.000009   -0.02     63.93   
    87. D(H  14,C   4,C   3,H  12)    -62.36  0.000019   -0.03    -62.39   
    88. D(C   5,C   4,C   3,H  13)   -167.32  0.000016   -0.02   -167.34   
    89. D(C   5,C   4,C   3,H  12)     66.37  0.000025   -0.03     66.34   
    90. D(C   5,C   4,C   3,C   2)    -48.47  0.000009   -0.01    -48.48   
    91. D(C   0,C   4,C   3,H  13)    -58.65 -0.000012   -0.00    -58.65   
    92. D(C   0,C   4,C   3,H  12)    175.04 -0.000002   -0.01    175.03   
    93. D(C   0,C   4,C   3,C   2)     60.20 -0.000019    0.00     60.21   
    94. D(H  14,C   4,C   0,H   8)     77.65 -0.000000   -0.01     77.64   
    95. D(H  14,C   4,C   0,H   7)    -48.59 -0.000003   -0.00    -48.60   
    96. D(H  14,C   4,C   3,C   2)   -177.20  0.000002   -0.01   -177.22   
    97. D(H  14,C   4,C   0,N   1)   -164.28  0.000010   -0.01   -164.29   
    98. D(C   5,C   4,C   0,H   8)    -52.06 -0.000005   -0.01    -52.07   
    99. D(C   5,C   4,C   0,H   7)   -178.30 -0.000007   -0.01   -178.30   
   100. D(H  15,C   5,C   4,H  14)    -22.95 -0.000011    0.04    -22.91   
   101. D(H  15,C   5,C   4,C   3)   -151.94 -0.000015    0.04   -151.90   
   102. D(H  15,C   5,C   4,C   0)    104.23 -0.000002    0.03    104.26   
   103. D(C   6,C   5,C   4,H  14)    161.55 -0.000012    0.01    161.56   
   104. D(C   6,C   5,C   4,C   3)     32.56 -0.000015    0.02     32.57   
   105. D(C   6,C   5,C   4,C   0)    -71.27 -0.000002    0.01    -71.26   
   106. D(H  16,C   6,C   5,H  15)      0.18 -0.000006    0.01      0.19   
   107. D(H  16,C   6,C   5,C   4)    175.54 -0.000005    0.03    175.58   
   108. D(C   2,C   6,C   5,C   4)     -0.20  0.000004   -0.01     -0.21   
   109. D(H  16,C   6,C   2,H  11)     15.99  0.000006   -0.03     15.96   
   110. D(H  16,C   6,C   2,C   3)    151.22  0.000007   -0.04    151.18   
   111. D(H  16,C   6,C   2,N   1)   -106.01  0.000008   -0.03   -106.04   
   112. D(C   2,C   6,C   5,H  15)   -175.56  0.000003   -0.03   -175.59   
   113. D(C   5,C   6,C   2,H  11)   -168.07 -0.000005    0.01   -168.06   
   114. D(C   5,C   6,C   2,C   3)    -32.85 -0.000004    0.00    -32.84   
   115. D(C   5,C   6,C   2,N   1)     69.93 -0.000003    0.01     69.93   
    ----------------------------------------------------------------------------
                 *******************************************************
                 *** FINAL ENERGY EVALUATION AT THE STATIONARY POINT ***
                 ***               (AFTER    2 CYCLES)               ***
                 *******************************************************


           ************************************************************
           *        Program running with 8 parallel MPI-processes     *
           *              working on a common directory               *
           ************************************************************
           ************************************************************
           *              Shut down parallel processing               *
           ************************************************************


           ************************************************************
           *        Program running with 8 parallel MPI-processes     *
           *              working on a common directory               *
           ************************************************************
------------
SCF SETTINGS
------------
Hamiltonian:
 Density Functional     Method          .... DFT(GTOs)
 Exchange Functional    Exchange        .... PBE
   PBE kappa parameter  XKappa          ....  0.804000
 Correlation Functional Correlation     .... PBE
 LDA part of GGA corr.  LDAOpt          .... PW91-LDA
 Gradients option       PostSCFGGA      .... off
 Hybrid DFT is turned on
   Fraction HF Exchange ScalHFX         ....  0.250000
   Scaling of DF-GGA-X  ScalDFX         ....  0.750000
   Scaling of DF-GGA-C  ScalDFC         ....  1.000000
   Scaling of DF-LDA-C  ScalLDAC        ....  1.000000
   Perturbative correction              ....  0.000000
   NL short-range parameter             ....  6.900000


General Settings:
 Integral files         IntName         .... 1602_+
 Hartree-Fock type      HFTyp           .... RHF
 Total Charge           Charge          ....    1
 Multiplicity           Mult            ....    1
 Number of Electrons    NEL             ....   52
 Basis Dimension        Dim             ....  277
 Nuclear Repulsion      ENuc            ....    323.5614679952 Eh

Convergence Acceleration:
 DIIS                   CNVDIIS         .... on
   Start iteration      DIISMaxIt       ....    12
   Startup error        DIISStart       ....  0.200000
   # of expansion vecs  DIISMaxEq       ....     5
   Bias factor          DIISBfac        ....   1.050
   Max. coefficient     DIISMaxC        ....  10.000
 Newton-Raphson         CNVNR           .... off
 SOSCF                  CNVSOSCF        .... on
   Start iteration      SOSCFMaxIt      ....   150
   Startup grad/error   SOSCFStart      ....  0.003300
 Level Shifting         CNVShift        .... on
   Level shift para.    LevelShift      ....    0.2500
   Turn off err/grad.   ShiftErr        ....    0.0010
 Zerner damping         CNVZerner       .... off
 Static damping         CNVDamp         .... on
   Fraction old density DampFac         ....    0.7000
   Max. Damping (<1)    DampMax         ....    0.9800
   Min. Damping (>=0)   DampMin         ....    0.0000
   Turn off err/grad.   DampErr         ....    0.1000
 Fernandez-Rico         CNVRico         .... off

SCF Procedure:
 Maximum # iterations   MaxIter         ....   125
 SCF integral mode      SCFMode         .... Direct
   Integral package                     .... LIBINT
 Reset frequeny         DirectResetFreq ....    20
 Integral Threshold     Thresh          ....  2.500e-11 Eh
 Primitive CutOff       TCut            ....  2.500e-12 Eh

Convergence Tolerance:
 Convergence Check Mode ConvCheckMode   .... Total+1el-Energy
 Energy Change          TolE            ....  1.000e-08 Eh
 1-El. energy change                    ....  1.000e-05 Eh
 Orbital Gradient       TolG            ....  1.000e-05
 Orbital Rotation angle TolX            ....  1.000e-05
 DIIS Error             TolErr          ....  5.000e-07


Diagonalization of the overlap matrix:
Smallest eigenvalue                        ... 3.434e-05
Time for diagonalization                   ...    0.215 sec
Threshold for overlap eigenvalues          ... 1.000e-08
Number of eigenvalues below threshold      ... 0
Time for construction of square roots      ...    0.020 sec
Total time needed                          ...    0.235 sec

-------------------
DFT GRID GENERATION
-------------------

General Integration Accuracy     IntAcc      ...  4.340
Radial Grid Type                 RadialGrid  ... Gauss-Chebyshev
Angular Grid (max. acc.)         AngularGrid ... Lebedev-194
Angular grid pruning method      GridPruning ... 3 (G Style)
Weight generation scheme         WeightScheme... Becke
Basis function cutoff            BFCut       ...    1.0000e-11
Integration weight cutoff        WCut        ...    1.0000e-14
Grids for H and He will be reduced by one unit

# of grid points (after initial pruning)     ...  38278 (   0.0 sec)
# of grid points (after weights+screening)   ...  34711 (   0.1 sec)
nearest neighbour list constructed           ...    0.0 sec
Grid point re-assignment to atoms done       ...    0.0 sec
Grid point division into batches done        ...    0.1 sec
Reduced shell lists constructed in    0.1 sec

Total number of grid points                  ...    34711
Total number of batches                      ...      550
Average number of points per batch           ...       63
Average number of grid points per atom       ...     2042
Average number of shells per batch           ...   101.73 (86.95%)
Average number of basis functions per batch  ...   256.64 (92.65%)
Average number of large shells per batch     ...    88.01 (86.52%)
Average number of large basis fcns per batch ...   223.59 (87.12%)
Maximum spatial batch extension              ...   2.68,  2.12,  2.50 au
Average spatial batch extension              ...   0.15,  0.14,  0.15 au

Time for grid setup =    0.529 sec

--------------
SCF ITERATIONS
--------------
ITER       Energy         Delta-E        Max-DP      RMS-DP      [F,P]     Damp
               ***  Starting incremental Fock matrix formation  ***
                      *** Initiating the SOSCF procedure ***
                      *** Re-Reading the Fockian *** 
                      *** Removing any level shift *** 
ITER      Energy       Delta-E        Grad      Rot      Max-DP    RMS-DP
  0   -288.89745526 -288.8974552563  0.000041  0.000041  0.000086  0.000002
               *** Restarting incremental Fock matrix formation ***
  1   -288.89745538  -0.0000001196  0.000023  0.000066  0.000035  0.000001
  2   -288.89745539  -0.0000000159  0.000003  0.000016  0.000009  0.000000
  3   -288.89745539  -0.0000000001  0.000003  0.000004  0.000004  0.000000
                  ***Gradient check signals convergence***
              ***Rediagonalizing the Fockian in SOSCF/NRSCF***

               *****************************************************
               *                     SUCCESS                       *
               *           SCF CONVERGED AFTER   4 CYCLES          *
               *****************************************************

Setting up the final grid:

General Integration Accuracy     IntAcc      ...  5.010
Radial Grid Type                 RadialGrid  ... Gauss-Chebyshev
Angular Grid (max. acc.)         AngularGrid ... Lebedev-434
Angular grid pruning method      GridPruning ... 3 (G Style)
Weight generation scheme         WeightScheme... Becke
Basis function cutoff            BFCut       ...    1.0000e-11
Integration weight cutoff        WCut        ...    1.0000e-14
Grids for H and He will be reduced by one unit

# of grid points (after initial pruning)     ... 141698 (   0.0 sec)
# of grid points (after weights+screening)   ... 126997 (   1.7 sec)
nearest neighbour list constructed           ...    0.0 sec
Grid point re-assignment to atoms done       ...    0.0 sec
Grid point division into batches done        ...    0.8 sec
Reduced shell lists constructed in    1.0 sec

Total number of grid points                  ...   126997
Total number of batches                      ...     1992
Average number of points per batch           ...       63
Average number of grid points per atom       ...     7470
Average number of shells per batch           ...   100.67 (86.04%)
Average number of basis functions per batch  ...   255.38 (92.19%)
Average number of large shells per batch     ...    86.10 (85.53%)
Average number of large basis fcns per batch ...   218.58 (85.59%)
Maximum spatial batch extension              ...   2.08,  2.40,  2.51 au
Average spatial batch extension              ...   0.10,  0.10,  0.10 au

Final grid set up in    4.2 sec
Final integration                            ... done (   1.6 sec)
Change in XC energy                          ...     0.000376735
Integrated number of electrons               ...    52.000042568
Previous integrated no of electrons          ...    51.999915070
Total Energy       :         -288.89707866 Eh           -7861.28917 eV
  Last Energy change         ...   -5.8401e-10  Tolerance :   1.0000e-08
  Last MAX-Density change    ...    3.5312e-06  Tolerance :   1.0000e-07
             **** THE GBW FILE WAS UPDATED (1602_+.gbw) ****
             **** DENSITY FILE WAS UPDATED (1602_+.scfp.tmp) ****
             **** ENERGY FILE WAS UPDATED (1602_+.en.tmp) ****
Total SCF time: 0 days 0 hours 0 min 59 sec 
           ************************************************************
           *              Shut down parallel processing               *
           ************************************************************

-------------------------   --------------------
FINAL SINGLE POINT ENERGY      -288.897078657662
-------------------------   --------------------

                                *** OPTIMIZATION RUN DONE ***

                            ***************************************
                            *     ORCA property calculations      *
                            ***************************************

                                    ---------------------
                                    Active property flags
                                    ---------------------




           ************************************************************
           *        Program running with 8 parallel MPI-processes     *
           *              working on a common directory               *
           ************************************************************

-------------------------------------------------------------------------------
                               ORCA SCF HESSIAN
-------------------------------------------------------------------------------

Hessian of the Kohn-Sham DFT energy:
Kohn-Sham wavefunction type                      ... RKS
Hartree-Fock exchange scaling                    ...    0.250
Number of operators                              ...    1
Number of atoms                                  ...   17
Basis set dimensions                             ...  277
[...]
     49       0.177377  -0.015238  -0.140310   0.155351   0.025582   0.016285
     50      -0.238938   0.012331   0.186807  -0.190912  -0.036283   0.021146
                 36         37         38         39         40         41    
      0      -0.015849   0.031142   0.067858   0.010625  -0.007199  -0.003139
      1       0.006633   0.001917   0.008152   0.001631  -0.002601   0.001934
      2       0.061451   0.002475   0.017117   0.007658  -0.020016  -0.001378
      3      -0.063634   0.001281   0.017103  -0.017138   0.001947   0.000220
      4      -0.009371  -0.002283   0.000330   0.010541  -0.004967   0.000159
      5      -0.006668   0.004588  -0.002734   0.067223  -0.052025  -0.000008
      6       0.010221   0.008086  -0.004468   0.006783   0.040229   0.002653
      7       0.072679   0.004586  -0.000233  -0.001987  -0.011432   0.002061
      8      -0.069634  -0.015009  -0.003774   0.002256  -0.019209  -0.000439
      9      -0.060986   0.008037  -0.007262   0.002215   0.004945   0.006978
     10      -0.005000   0.080008  -0.033716  -0.005252   0.007442  -0.072123
     11       0.038269   0.032748  -0.012769  -0.001831   0.008802   0.009858
     12       0.060450  -0.006643   0.007577  -0.012048  -0.033439  -0.000904
     13      -0.066321   0.000046  -0.003294   0.000327  -0.004197   0.001456
     14       0.017747   0.004774   0.002472   0.005069   0.025316   0.001820
     15      -0.066473  -0.007727   0.004986   0.080409   0.287850   0.000062
     16       0.095657  -0.000147   0.004138  -0.007079  -0.024263   0.000259
     17      -0.030737   0.003238  -0.005101  -0.040288  -0.140406   0.000162
     18      -0.012556   0.005398  -0.008317  -0.073231  -0.264489  -0.000008
     19      -0.099582  -0.004563  -0.001520  -0.007763  -0.032791   0.000292
     20       0.079853  -0.001277   0.005895   0.045456   0.173095   0.000099
     21       0.162465  -0.214974  -0.481809  -0.039180   0.047086   0.027398
     22      -0.060473  -0.177497  -0.430458  -0.041461   0.060176  -0.038659
     23      -0.346469  -0.007506  -0.076703  -0.003923   0.027005   0.016819
     24       0.070338  -0.226677  -0.518402  -0.045297   0.037713   0.006875
     25      -0.001844   0.143505   0.334134   0.034483  -0.042728   0.016636
     26      -0.172955  -0.067360  -0.182369  -0.018294   0.056040   0.001377
     27       0.315443   0.022354  -0.028436   0.159953  -0.114830  -0.000282
     28       0.045283  -0.003071   0.055844  -0.493142   0.352908  -0.002957
     29       0.059149   0.002483   0.052554  -0.461795   0.327309  -0.001351
     30       0.100068   0.011853  -0.010679   0.075880  -0.020955   0.000130
     31       0.019282   0.009717  -0.042038   0.332400  -0.237845   0.001193
     32       0.009440  -0.017802   0.072061  -0.594002   0.441927  -0.000461
     33       0.205861   0.038867   0.000384  -0.018854  -0.040027  -0.038552
     34      -0.114698   0.009297  -0.002327   0.030323   0.156588  -0.016711
     35       0.157353   0.037091   0.008090  -0.021914  -0.074808   0.017055
     36       0.072186   0.109820  -0.054410  -0.006622   0.013442   0.180733
     37       0.037964  -0.601485   0.246835   0.031151  -0.056516   0.072989
     38      -0.049611   0.159131  -0.061977  -0.005745   0.027454   0.314723
     39       0.332560  -0.242806   0.121773   0.000536  -0.038164  -0.267739
     40       0.012975  -0.333017   0.137741   0.009050  -0.043884   0.763081
     41      -0.168891  -0.512292   0.200980   0.030229  -0.055652  -0.444545
     42      -0.003011   0.009892   0.005091  -0.011568  -0.067645   0.022435
     43       0.118385   0.012939  -0.002561   0.036305   0.147797  -0.011353
     44      -0.160708   0.023509  -0.007432  -0.010508  -0.079373  -0.020302
     45       0.380221   0.002474   0.010130  -0.036564  -0.123530   0.000290
     46      -0.158869  -0.006306   0.004455   0.077345   0.268595   0.001010
     47      -0.097327   0.004380  -0.006328  -0.031373  -0.114151  -0.002727
     48       0.263261   0.015109  -0.000700  -0.015951  -0.052551  -0.001565
     49       0.183760   0.002373   0.009232   0.076827   0.272313   0.000420
     50      -0.292547  -0.006509  -0.006635  -0.035099  -0.161496  -0.001091
                 42         43         44         45         46         47    
      0       0.061033  -0.003561   0.000844   0.002831   0.004824  -0.000030
      1      -0.007899  -0.005908   0.002394  -0.003206   0.096405  -0.000564
      2       0.030945  -0.001125  -0.000032   0.001783  -0.007670   0.000259
      3      -0.001176   0.000677   0.000434   0.000273   0.000046  -0.000065
      4       0.000503   0.000415  -0.000020   0.000746  -0.002381  -0.000255
      5      -0.000431  -0.000534  -0.001034   0.000304   0.000370  -0.000070
      6       0.000664  -0.017808  -0.054539  -0.046394  -0.001528   0.002485
      7       0.000391  -0.006547  -0.019787  -0.016169  -0.000552   0.002013
      8      -0.000431   0.008721   0.029605   0.023774   0.000677  -0.002077
      9      -0.000111  -0.016850   0.031218  -0.029169  -0.003487  -0.000396
     10      -0.003681   0.003719  -0.006281  -0.000879   0.001273  -0.000192
     11      -0.000022  -0.031133   0.052345  -0.051249  -0.005499   0.000207
     12      -0.004282  -0.057689  -0.004623   0.029836  -0.002619   0.003483
     13       0.000954   0.021624   0.001981  -0.010668   0.001569  -0.002309
     14       0.002613   0.045353   0.004575  -0.023960   0.001823  -0.001761
     15      -0.000443   0.002415   0.000464  -0.001398   0.000120   0.023277
     16       0.000185   0.002338   0.000833  -0.000685   0.000359   0.049567
     17      -0.000126  -0.002575  -0.001063   0.001242  -0.000196  -0.041856
     18       0.000071   0.001679   0.002935   0.002742   0.000431   0.036175
     19       0.000076  -0.001015  -0.001621  -0.001017  -0.000125  -0.036236
     20      -0.000031   0.000004  -0.000683  -0.000794  -0.000228   0.001397
     21      -0.441512   0.001922   0.005565  -0.025259   0.320606  -0.002550
     22       0.612780  -0.001117  -0.007092   0.034025  -0.425035   0.003259
     23      -0.287127   0.002835   0.003320  -0.017876   0.210795  -0.002559
     24      -0.255872   0.037868  -0.011669   0.005233  -0.370736   0.001950
     25      -0.514921   0.072580  -0.022886   0.008077  -0.710113   0.004372
     26      -0.074571   0.013424  -0.004651   0.001168  -0.118275  -0.000117
     27       0.003279  -0.000589  -0.003587  -0.003302  -0.004590   0.000596
     28      -0.006352  -0.000482  -0.005980  -0.005910   0.009967  -0.000210
     29       0.004514  -0.000468   0.000415   0.003214  -0.007687   0.000602
     30       0.000514   0.000429  -0.002807  -0.002115   0.003272   0.000056
     31       0.000882  -0.002108   0.001109   0.002727   0.012911   0.002699
     32      -0.000387  -0.000941  -0.001256   0.001387   0.003507   0.001790
     33      -0.013383   0.207722   0.629948   0.520653   0.015304  -0.032958
     34      -0.005165   0.073286   0.225970   0.184996   0.005323  -0.014195
     35       0.006589  -0.106806  -0.324531  -0.267058  -0.008140   0.018726
     36       0.009602   0.168308  -0.291857   0.296176   0.026887   0.000731
     37       0.004733   0.083181  -0.143302   0.148115   0.012388   0.000301
     38       0.017509   0.295461  -0.504973   0.515477   0.046772   0.000757
     39      -0.011852   0.041150  -0.073657   0.052286   0.009709   0.000401
     40       0.036381  -0.129097   0.219892  -0.155607  -0.032633   0.000378
     41      -0.021542   0.071438  -0.120365   0.087139   0.017641  -0.000515
     42       0.046593   0.660213   0.061686  -0.335993   0.030298  -0.035590
     43      -0.015827  -0.248297  -0.022157   0.125345  -0.012299   0.015534
     44      -0.032691  -0.528321  -0.050071   0.269958  -0.023962   0.026213
     45       0.000630  -0.019359  -0.003775   0.009463  -0.002642  -0.267646
     46      -0.000898  -0.035274  -0.007199   0.014773  -0.007708  -0.569463
     47       0.001108   0.030701   0.005312  -0.013333   0.006191   0.478154
     48      -0.000044  -0.013047  -0.033462  -0.025813  -0.001808  -0.438522
     49       0.000249   0.012217   0.029781   0.021816   0.001482   0.414539
     50      -0.000004   0.000773   0.001345   0.002007   0.000213   0.000209
                  48         49         50    
      0      -0.000196   0.000515   0.000283
      1       0.000403  -0.000143  -0.001528
      2      -0.000216  -0.000134   0.000306
      3      -0.000063  -0.010181   0.009740
      4      -0.000292   0.000141  -0.081628
      5      -0.000277   0.057669   0.007494
      6       0.002670   0.000072  -0.000255
      7       0.002950  -0.000180  -0.000141
      8      -0.002893   0.000841  -0.000150
      9      -0.000193  -0.000226  -0.000057
     10       0.001302  -0.000270   0.000122
     11      -0.000165  -0.000363   0.000344
     12      -0.002867   0.000752  -0.000117
     13       0.002192  -0.000182   0.000097
     14       0.000711  -0.000372   0.000062
     15      -0.025321   0.000091   0.000238
     16      -0.038175   0.000154  -0.000065
     17       0.036385  -0.000031  -0.000169
     18       0.057814   0.000164  -0.000570
     19      -0.047468  -0.000261   0.000397
     20      -0.003916  -0.000139   0.000012
     21       0.001774  -0.001139  -0.008518
     22      -0.002232   0.005328   0.011024
     23       0.001331  -0.004949  -0.004370
     24      -0.000382   0.001725   0.005677
     25      -0.001706  -0.002774   0.010872
     26       0.000634  -0.002110   0.001277
     27       0.000271   0.008697   0.010244
     28       0.000728   0.561895   0.438638
     29      -0.000511  -0.535804  -0.441698
     30       0.000086   0.114412  -0.143111
     31       0.003690  -0.562429   0.686572
     32       0.002931  -0.253216   0.336632
     33      -0.033142   0.005792   0.002509
     34      -0.015318   0.002593   0.001424
     35       0.020220  -0.003238  -0.001300
     36      -0.000970   0.001487  -0.000121
     37      -0.000951  -0.000312   0.000524
     38      -0.001748   0.000354   0.000196
     39       0.001265  -0.000805  -0.000209
     40      -0.003242   0.001455   0.000981
     41       0.001903  -0.001033  -0.000218
     42       0.023170  -0.002580   0.000618
     43      -0.010249   0.000455  -0.000155
     44      -0.015328   0.000494  -0.000065
     45       0.206459   0.000130  -0.000255
     46       0.431565  -0.000036  -0.000195
     47      -0.364864   0.000353   0.000384
     48      -0.577842  -0.002555   0.003512
     49       0.540686   0.002383  -0.002068
     50       0.002934   0.000149   0.000199


-----------
IR SPECTRUM
-----------

 Mode    freq (cm**-1)   T**2         TX         TY         TZ
-------------------------------------------------------------------
   6:       252.22    3.170387  (  0.130229  -1.677057   0.583872)
   7:       395.54    2.805967  ( -0.365329  -1.627735  -0.151596)
   8:       480.53    0.736599  (  0.551276  -0.593853  -0.282902)
   9:       490.12    0.374420  ( -0.229933  -0.137152   0.550218)
  10:       677.71    1.896050  (  0.513788  -0.192132   1.262996)
  11:       717.32    5.242837  (  0.804212   2.014954   0.732149)
  12:       768.89   33.163085  ( -2.747927  -1.277572  -4.896917)
  13:       818.71    7.071273  ( -0.001912   1.233344   2.355872)
  14:       824.48   12.060336  (  0.215877   0.321040   3.451183)
  15:       849.01    7.257956  (  0.155988   2.159180   1.603610)
  16:       888.80   11.789766  (  1.290016   2.228240   2.271689)
  17:       912.31    9.804415  ( -2.997193  -0.421664  -0.802153)
  18:       944.73    7.782950  ( -1.864286  -1.717675  -1.164895)
  19:       958.35    2.673592  (  0.381902   1.523895   0.453306)
  20:       976.64    0.149349  ( -0.071523  -0.068098  -0.373626)
  21:       991.69    0.706323  ( -0.528210   0.025654   0.653191)
  22:       999.66    2.330997  (  0.612171   1.369413  -0.284519)
  23:      1034.22    6.914808  (  1.597528   0.158856   2.082661)
  24:      1060.68    1.272325  ( -0.867226  -0.471624   0.545724)
  25:      1128.85    2.371822  (  1.292496   0.087464   0.832842)
  26:      1151.65    0.166622  (  0.008347   0.353213   0.204433)
  27:      1175.94   14.462135  (  0.382745  -3.765698   0.367645)
  28:      1214.09    5.663321  ( -1.203393  -1.137250  -1.709335)
  29:      1233.54   14.580036  (  3.307024   0.092311   1.906595)
  30:      1288.03    0.903266  (  0.109034  -0.447246   0.831473)
  31:      1292.48    6.600457  (  2.488381  -0.552824   0.320626)
  32:      1315.17    0.505831  ( -0.124504  -0.150790   0.683807)
  33:      1330.75    1.470338  ( -0.685000   0.998767  -0.059814)
  34:      1346.57   17.478185  ( -3.834196  -1.100385  -1.251510)
  35:      1358.07    9.246769  ( -2.630010  -1.522178   0.113097)
  36:      1384.23   41.832586  (  5.672490   0.819242  -2.997380)
  37:      1488.20   14.124521  ( -1.141213  -2.845509  -2.173759)
  38:      1503.73    6.159757  ( -2.185208   0.969734  -0.666511)
  39:      1637.90   65.032478  (  1.699429  -0.806594  -7.841800)
  40:      1658.72    6.731369  (  0.648961   0.966062   2.318823)
  41:      3084.54    9.398069  (  0.546659  -2.723207   1.297450)
  42:      3119.47    1.891006  (  1.117168  -0.317139   0.736454)
  43:      3171.75    0.843973  ( -0.784051   0.478370  -0.020003)
  44:      3173.22    1.402341  ( -0.338865  -0.975199   0.580085)
  45:      3175.57    0.694116  ( -0.120028   0.489177   0.663638)
  46:      3187.77    0.132797  ( -0.143659   0.325805  -0.077521)
  47:      3232.16    2.013967  ( -1.277424  -0.038745   0.616972)
  48:      3253.09    2.093937  ( -0.701912   1.122470  -0.584224)
  49:      3472.96   61.084493  (  1.327376  -0.301148  -7.696225)
  50:      3539.33   69.679913  ( -0.819843   8.306082  -0.129528)

The first frequency considered to be a vibration is 6
The total number of vibrations considered is 45


--------------------------
THERMOCHEMISTRY AT 298.15K
--------------------------

Temperature         ... 298.15 K
Pressure            ... 1.00 atm
Total Mass          ... 96.15 AMU

Throughout the following assumptions are being made:
  (1) The electronic state is orbitally nondegenerate
  (2) There are no thermally accessible electronically excited states
  (3) Hindered rotations indicated by low frequency modes) are not
      treated as such but are treated as vibrations and this may
      case some error
  (4) All equations used are the standard statistical mechanics
      equations for an ideal gas
  (5) All vibrations are strinctly harmonic


------------
INNER ENERGY
------------

The inner energy is: U= E(el) + E(ZPE) + E(vib) + E(rot) + E(trans)
    E(el)   - is the total energy from the electronic structure calculation
              = E(kin-el) + E(nuc-el) + E(el-el) + E(nuc-nuc)
    E(ZPE)  - the the zero temperature vibrational energy from the frequency calculation
    E(vib)  - the the finite temperature correction to E(ZPE) due to population
              of excietd vibrational states
    E(rot)  - is the rotational thermal energy
    E(trans)- is the translational thermal energy

Summary of contributions to the inner energy U:
Electronic energy                ...   -288.89707866 Eh
Zero point energy                ...      0.15710099 Eh      98.58 kcal/mol
Thermal vibrational correction   ...      0.00234338 Eh       1.47 kcal/mol
Thermal rotational correction    ...      0.00141627 Eh       0.89 kcal/mol
Thermal translational correction ...      0.00141627 Eh       0.89 kcal/mol
-----------------------------------------------------------------------
Total thermal energy                   -288.73480174 Eh


Summary of corrections to the electronic energy:
(perhaps to be used in another calculation)
Total thermal correction                  0.00517592 Eh       3.25 kcal/mol
Non-thermal (ZPE) correction              0.15710099 Eh      98.58 kcal/mol
-----------------------------------------------------------------------
Total correction                          0.16227692 Eh     101.83 kcal/mol


--------
ENTHALPY
--------

The enthalpy is H = U + kB*T
                kB is Boltzmann's constant
Total free energy                 ...   -288.73480174 Eh 
Thermal Enthalpy correction       ...      0.00094421 Eh       0.59 kcal/mol
-----------------------------------------------------------------------
Total Enthalpy                    ...   -288.73385753 Eh


-------
ENTROPY
-------

The entropy contributions are T*S = T*(S(el)+S(vib)+S(rot)+S(trans)
     S(el)   - electronic entropy
     S(vib)  - vibrational entropy
     S(rot)  - rotational entropy
     S(trans)- translational entropy
The entropies will be listed as mutliplied by the temperature to get
units of energy

Electronic entropy                ...      0.00000000 Eh      0.00 kcal/mol
Vibrational entropy               ...      0.00326851 Eh      2.05 kcal/mol
Rotational entropy                ...      0.01153408 Eh      7.24 kcal/mol
Translational entropy             ...      0.01881568 Eh     11.81 kcal/mol
-----------------------------------------------------------------------
Final entropy term                ...      0.03361827 Eh     21.10 kcal/mol


CAUTION: The rotational entropy is not quite correctly treated here
         because it includes a symmetry number that is not yet correctly
         implemented in ORCA!
For a nonlinear molecule the correct rotational entropy is:
    S(rot) = R*(ln(qrot/sn)+1.5)
    R    = 8.31441 J/mol/K = 1.987191683e-3 kcal/mol/K
    qrot = 135208.2955814
    sn is the rotational symmetry number. We have assumed 3 here
       if it is different for your molecule then you should correct
       the printed rotational entropy by manually evaluating the equation
       as given above

For convenience we print out the resulting values for sn=1 - 12:
 sn= 1  qrot/sn=  135208.2956 T*S(rot)=     7.89 kcal/mol T*S(tot)=    21.75 kcal/mol
 sn= 2  qrot/sn=   67604.1478 T*S(rot)=     7.48 kcal/mol T*S(tot)=    21.34 kcal/mol
 sn= 3  qrot/sn=   45069.4319 T*S(rot)=     7.24 kcal/mol T*S(tot)=    21.10 kcal/mol
 sn= 4  qrot/sn=   33802.0739 T*S(rot)=     7.07 kcal/mol T*S(tot)=    20.93 kcal/mol
 sn= 5  qrot/sn=   27041.6591 T*S(rot)=     6.94 kcal/mol T*S(tot)=    20.79 kcal/mol
 sn= 6  qrot/sn=   22534.7159 T*S(rot)=     6.83 kcal/mol T*S(tot)=    20.69 kcal/mol
 sn= 7  qrot/sn=   19315.4708 T*S(rot)=     6.74 kcal/mol T*S(tot)=    20.59 kcal/mol
 sn= 8  qrot/sn=   16901.0369 T*S(rot)=     6.66 kcal/mol T*S(tot)=    20.51 kcal/mol
 sn= 9  qrot/sn=   15023.1440 T*S(rot)=     6.59 kcal/mol T*S(tot)=    20.44 kcal/mol
 sn=10  qrot/sn=   13520.8296 T*S(rot)=     6.52 kcal/mol T*S(tot)=    20.38 kcal/mol
 sn=11  qrot/sn=   12291.6632 T*S(rot)=     6.47 kcal/mol T*S(tot)=    20.33 kcal/mol
 sn=12  qrot/sn=   11267.3580 T*S(rot)=     6.42 kcal/mol T*S(tot)=    20.27 kcal/mol


-------------------
GIBBS FREE ENTHALPY
-------------------

The Gibbs free enthalpy is G = H - T*S

Total enthalpy                    ...   -288.73385753 Eh 
Total entropy correction          ...     -0.03361827 Eh    -21.10 kcal/mol
-----------------------------------------------------------------------
Final Gibbs free enthalpy         ...   -288.76747580 Eh

For completeness - the Gibbs free enthalpy minus the electronic energy
G-E(el)                           ...      0.12960285 Eh     81.33 kcal/mol


Timings for individual modules:

Sum of individual times         ...     2893.577 sec (=  48.226 min)
GTO integral calculation        ...        6.531 sec (=   0.109 min)   0.2 %
SCF iterations                  ...      316.618 sec (=   5.277 min)  10.9 %
SCF Gradient evaluation         ...      136.208 sec (=   2.270 min)   4.7 %
Geometry relaxation             ...        0.165 sec (=   0.003 min)   0.0 %
Analytical frequency calculation...     2434.054 sec (=  40.568 min)  84.1 %
                             ****ORCA TERMINATED NORMALLY****
TOTAL RUN TIME: 0 days 0 hours 48 minutes 15 seconds 217 msec
