
                                 *****************
                                 * O   R   C   A *
                                 *****************

           --- An Ab Initio, DFT and Semiempirical electronic structure package ---

                  #######################################################
                  #                        -***-                        #
                  #  Department of molecular theory and spectroscopy    #
                  #              Directorship: Frank Neese              #
                  # Max Planck Institute for Chemical Energy Conversion #
                  #                  D-45470 Muelheim/Ruhr              #
                  #                       Germany                       #
                  #                                                     #
                  #                  All rights reserved                #
                  #                        -***-                        #
                  #######################################################


                         Program Version 3.0.3 - RELEASE   -


 With contributions from (in alphabetic order):
   Ute Becker             : Parallelization
   Dmytro Bykov           : SCF Hessian
   Dmitry Ganyushin       : Spin-Orbit,Spin-Spin,Magnetic field MRCI
   Andreas Hansen         : Spin unrestricted coupled pair/coupled cluster methods
   Dimitrios Liakos       : Extrapolation schemes; parallel MDCI
   Robert Izsak           : Overlap fitted RIJCOSX, COSX-SCS-MP3
   Christian Kollmar      : KDIIS, OOCD, Brueckner-CCSD(T), CCSD density
   Simone Kossmann        : Meta GGA functionals, TD-DFT gradient, OOMP2, MP2 Hessian
   Taras Petrenko         : DFT Hessian,TD-DFT gradient, ASA and ECA modules, normal mode analysis, Resonance Raman, ABS, FL, XAS/XES, NRVS
   Christoph Reimann      : Effective Core Potentials
   Michael Roemelt        : Restricted open shell CIS
   Christoph Riplinger    : Improved optimizer, TS searches, QM/MM, DLPNO-CCSD
   Barbara Sandhoefer     : DKH picture change effects
   Igor Schapiro          : Molecular dynamics
   Kantharuban Sivalingam : CASSCF convergence, NEVPT2
   Boris Wezisla          : Elementary symmetry handling
   Frank Wennmohs         : Technical directorship


 We gratefully acknowledge several colleagues who have allowed us to
 interface, adapt or use parts of their codes:
   Stefan Grimme, W. Hujo, H. Kruse, T. Risthaus : VdW corrections, initial TS optimization,
                                                   DFT functionals, gCP
   Ed Valeev                                     : LibInt (2-el integral package), F12 methods
   Garnet Chan, S. Sharma, R. Olivares           : DMRG
   Ulf Ekstrom                                   : XCFun DFT Library
   Mihaly Kallay                                 : mrcc  (arbitrary order and MRCC methods)
   Andreas Klamt, Michael Diedenhofen            : otool_cosmo (COSMO solvation model)
   Frank Weinhold                                : gennbo (NPA and NBO analysis)
   Christopher J. Cramer and Donald G. Truhlar   : smd solvation model


 Your calculation uses the libint2 library for the computation of 2-el integrals
 For citations please refer to: http://libint.valeyev.net

 This ORCA versions uses:
   CBLAS   interface :  Fast vector & matrix operations
   LAPACKE interface :  Fast linear algebra routines
   SCALAPACK package :  Parallel linear algebra routines


Your calculation utilizes the basis: Ahlrichs-TZV
Cite in your paper:
H - Kr: A. Schaefer, H. Horn and R. Ahlrichs, J. Chem. Phys. 97, 2571 (1992).

The def2-TZV basis will be loaded
Cite in your paper:
 	F. Weigend, R. Ahlrichs, Phys. Chem. Chem. Phys. 2005, 7, 3297.

================================================================================
                                        WARNINGS
                       Please study these warnings very carefully!
================================================================================
Now building the actual basis set
WARNING: Geometry optimizations can change the point-group symmetry!

WARNING: Geometry Optimization
  ===> : Switching off AutoStart
         For restart on a previous wavefunction, please use MOREAD


INFO   : the flag for use of LIBINT has been found!

================================================================================
                                       INPUT FILE
================================================================================
NAME = 1617_+.inp
|  1> ! NORI PBE0 def2-TZVP UseSym TightOPT Freq TightSCF Grid3 FinalGrid5 XYZFile
|  2> % pal
|  3>     nprocs 8
|  4> end
|  5> %method
|  6>     SymThresh 5.0e-2
|  7> end
|  8> % geom 
|  9>     MaxIter 10
| 10> end 
| 11> % maxcore 2000
| 12> % output
| 13>     printlevel mini
| 14>     print[ P_Basis ] 0
| 15>     print[ P_SCFInfo ] 1
| 16>     print[ P_SCFIterInfo ] 1
| 17>     print[ P_OrbEn ] 0
| 18>     print[ P_Cartesian ] 0
| 19> end
| 20> % elprop
| 21>     Dipole false
| 22> end
| 23> *xyz 1 1
| 24>  C        1.3989609192    -0.2017302814    -0.4774538339 
| 25>  C        2.8096354852     0.0396287110    -0.0489790945 
| 26>  C        3.6742308424    -0.9680276929     0.6284951219 
| 27>  C        4.0602894116    -0.4370010077    -0.7220336184 
| 28>  C        5.0816385670     0.6862491947    -0.7360493767 
| 29>  C        4.2840141365     1.9427506367    -0.4053968007 
| 30>  N        3.0995553739     1.4513069670     0.3916162746 
| 31>  H        1.0999013161     0.4690295748    -1.2881381421 
| 32>  H        0.6975739112    -0.0926541322     0.3539677542 
| 33>  H        1.3063101524    -1.2222158508    -0.8490333251 
| 34>  H        4.2766664628    -0.6716035716     1.4816949601 
| 35>  H        3.2752477043    -1.9721895460     0.6950287538 
| 36>  H        3.9815125236    -1.0887696718    -1.5826498623 
| 37>  H        5.5506186178     0.7926463491    -1.7137090880 
| 38>  H        5.8803275603     0.5143614723    -0.0116206963 
| 39>  H        3.8751226257     2.3994001455    -1.3062019159 
| 40>  H        4.8169354204     2.7011129608     0.1672912272 
| 41>  H        2.2831487705     2.0426504825     0.2341355003 
| 42>  H        3.2928001989     1.4811052601     1.3937261620 
| 43> *
| 44> 
| 45>                          ****END OF INPUT****
================================================================================

The point group is C1 - hence turning off symmetry
If this is a round-off problem, please increase the symmetry
        detection tolerance (%method SymThresh)


                       *****************************
                       * Geometry Optimization Run *
                       *****************************

Geometry optimization settings:
Update method            Update   .... BFGS
Choice of coordinates    CoordSys .... Redundant Internals
Initial Hessian          InHess   .... Almoef's Model

Convergence Tolerances:
Energy Change            TolE     ....  1.0000e-06 Eh
Max. Gradient            TolMAXG  ....  1.0000e-04 Eh/bohr
RMS Gradient             TolRMSG  ....  3.0000e-05 Eh/bohr
Max. Displacement        TolMAXD  ....  1.0000e-03 bohr
RMS Displacement         TolRMSD  ....  6.0000e-04 bohr

------------------------------------------------------------------------------
                        ORCA OPTIMIZATION COORDINATE SETUP
------------------------------------------------------------------------------

The optimization will be done in new redundant internal coordinates
Making redundant internal coordinates   ...  (new redundants) done
Evaluating the initial hessian          ...  (Almloef) done
Evaluating the coordinates              ...  done
Calculating the B-matrix                .... done
Calculating the G-matrix                .... done
Diagonalizing the G-matrix              .... done
The first mode is                       ....   80
The number of degrees of freedom        ....   51

    -----------------------------------------------------------------
                    Redundant Internal Coordinates


    -----------------------------------------------------------------
         Definition                    Initial Value    Approx d2E/dq
    -----------------------------------------------------------------
      1. B(C   1,C   0)                  1.4939         0.426495   
      2. B(C   2,C   1)                  1.4906         0.431766   
      3. B(C   3,C   1)                  1.4981         0.420017   
      4. B(C   3,C   2)                  1.5017         0.414577   
      5. B(C   4,C   3)                  1.5182         0.390073   
      6. B(C   5,C   4)                  1.5246         0.381093   
      7. B(N   6,C   1)                  1.5070         0.364106   
      8. B(N   6,C   5)                  1.5099         0.360280   
      9. B(H   7,C   0)                  1.0939         0.355009   
     10. B(H   8,C   0)                  1.0932         0.355881   
     11. B(H   9,C   0)                  1.0900         0.360133   
     12. B(H  10,C   2)                  1.0857         0.365833   
     13. B(H  11,C   2)                  1.0826         0.370066   
     14. B(H  12,C   3)                  1.0824         0.370246   
     15. B(H  13,C   4)                  1.0895         0.360719   
     16. B(H  14,C   4)                  1.0919         0.357595   
     17. B(H  15,C   5)                  1.0896         0.360664   
     18. B(H  16,C   5)                  1.0895         0.360713   
     19. B(H  17,N   6)                  1.0203         0.416645   
     20. B(H  18,N   6)                  1.0210         0.415560   
     21. A(C   1,C   0,H   8)          111.8131         0.330836   
     22. A(H   7,C   0,H   8)          109.0900         0.289654   
     23. A(C   1,C   0,H   7)          111.8173         0.330702   
     24. A(H   7,C   0,H   9)          107.3503         0.290194   
     25. A(C   1,C   0,H   9)          109.2262         0.331487   
     26. A(H   8,C   0,H   9)          107.3465         0.290306   
     27. A(C   3,C   1,N   6)          105.5917         0.366788   
     28. A(C   2,C   1,N   6)          112.8789         0.368528   
     29. A(C   0,C   1,N   6)          114.6363         0.367752   
     30. A(C   0,C   1,C   2)          124.6698         0.381119   
     31. A(C   0,C   1,C   3)          127.4480         0.379301   
     32. A(C   2,C   1,C   3)           60.3230         0.380109   
     33. A(H  10,C   2,H  11)          114.1707         0.292818   
     34. A(C   3,C   2,H  11)          118.5575         0.331425   
     35. A(C   1,C   2,H  11)          116.1811         0.333664   
     36. A(C   3,C   2,H  10)          117.8761         0.330794   
     37. A(C   1,C   2,H  10)          119.6336         0.333028   
     38. A(C   1,C   2,C   3)           60.0863         0.379251   
     39. A(C   2,C   3,C   4)          116.2878         0.372656   
     40. A(C   4,C   3,H  12)          119.1501         0.328131   
     41. A(C   1,C   3,C   4)          109.2911         0.373494   
     42. A(C   1,C   3,H  12)          119.2104         0.332168   
     43. A(C   2,C   3,H  12)          118.9089         0.331451   
     44. A(C   1,C   3,C   2)           59.5907         0.377444   
     45. A(C   3,C   4,H  14)          111.6837         0.326257   
     46. A(C   5,C   4,H  13)          109.8359         0.325474   
     47. A(C   3,C   4,H  13)          111.7217         0.326724   
     48. A(H  13,C   4,H  14)          107.2086         0.290599   
     49. A(C   3,C   4,C   5)          104.8206         0.367300   
     50. A(C   5,C   4,H  14)          111.6254         0.325009   
     51. A(C   4,C   5,N   6)          104.8715         0.360091   
     52. A(H  15,C   5,H  16)          109.0505         0.290989   
     53. A(N   6,C   5,H  16)          109.4389         0.320565   
     54. A(C   4,C   5,H  16)          115.5787         0.325474   
     55. A(N   6,C   5,H  15)          106.1668         0.320558   
     56. A(C   4,C   5,H  15)          111.2504         0.325466   
     57. A(C   1,N   6,C   5)          107.5472         0.355100   
     58. A(H  17,N   6,H  18)          106.6200         0.299495   
     59. A(C   5,N   6,H  18)          111.1078         0.325318   
     60. A(C   1,N   6,H  18)          110.5307         0.325883   
     61. A(C   5,N   6,H  17)          110.9524         0.325457   
     62. A(C   1,N   6,H  17)          110.1121         0.326023   
     63. D(N   6,C   1,C   0,H   8)    -65.6990         0.014383   
     64. D(C   2,C   1,C   0,H   7)   -156.1861         0.014383   
     65. D(N   6,C   1,C   0,H   9)    175.6355         0.014383   
     66. D(C   3,C   1,C   0,H   8)    157.9407         0.014383   
     67. D(C   3,C   1,C   0,H   7)    -79.3977         0.014383   
     68. D(C   2,C   1,C   0,H   9)    -37.5133         0.014383   
     69. D(C   2,C   1,C   0,H   8)     81.1522         0.014383   
     70. D(N   6,C   1,C   0,H   7)     56.9627         0.014383   
     71. D(C   3,C   1,C   0,H   9)     39.2752         0.014383   
     72. D(H  10,C   2,C   1,N   6)     11.5874         0.014736   
     73. D(C   3,C   2,C   1,N   6)    -95.4688         0.014736   
     74. D(H  10,C   2,C   1,C   0)   -135.7643         0.014736   
     75. D(H  11,C   2,C   1,C   0)      7.8077         0.014736   
     76. D(H  11,C   2,C   1,N   6)    155.1593         0.014736   
     77. D(H  11,C   2,C   1,C   3)   -109.3719         0.014736   
     78. D(C   3,C   2,C   1,C   0)    117.1796         0.014736   
     79. D(H  10,C   2,C   1,C   3)    107.0561         0.014736   
     80. D(C   4,C   3,C   2,C   1)     97.8937         0.013607   
     81. D(C   4,C   3,C   2,H  10)    -12.0447         0.013607   
     82. D(C   1,C   3,C   2,H  10)   -109.9384         0.013607   
     83. D(H  12,C   3,C   2,C   1)   -108.8021         0.013607   
     84. D(H  12,C   3,C   1,C   2)    108.3028         0.013958   
     85. D(H  12,C   3,C   1,C   0)     -4.5425         0.013958   
     86. D(C   4,C   3,C   1,N   6)     -2.0023         0.013958   
     87. D(H  12,C   3,C   1,N   6)   -143.9054         0.013958   
     88. D(C   1,C   3,C   2,H  11)    105.4498         0.013607   
     89. D(C   4,C   3,C   1,C   0)    137.3606         0.013958   
     90. D(C   4,C   3,C   2,H  11)   -156.6564         0.013607   
     91. D(C   2,C   3,C   1,N   6)    107.7918         0.013958   
     92. D(C   2,C   3,C   1,C   0)   -112.8453         0.013958   
     93. D(C   4,C   3,C   1,C   2)   -109.7941         0.013958   
     94. D(H  12,C   3,C   2,H  11)     -3.3523         0.013607   
     95. D(H  12,C   3,C   2,H  10)    141.2595         0.013607   
     96. D(H  14,C   4,C   3,H  12)   -112.1492         0.012097   
     97. D(H  14,C   4,C   3,C   2)     41.0876         0.012097   
     98. D(H  14,C   4,C   3,C   1)    105.9214         0.012097   
     99. D(H  13,C   4,C   3,H  12)      7.9252         0.012097   
    100. D(H  13,C   4,C   3,C   2)    161.1619         0.012097   
    101. D(H  13,C   4,C   3,C   1)   -134.0043         0.012097   
    102. D(C   5,C   4,C   3,H  12)    126.8228         0.012097   
    103. D(C   5,C   4,C   3,C   2)    -79.9405         0.012097   
    104. D(C   5,C   4,C   3,C   1)    -15.1067         0.012097   
    105. D(H  16,C   5,C   4,H  14)     25.6216         0.011572   
    106. D(H  16,C   5,C   4,H  13)    -93.1510         0.011572   
    107. D(H  16,C   5,C   4,C   3)    146.6881         0.011572   
    108. D(H  15,C   5,C   4,H  14)    150.6801         0.011572   
    109. D(H  15,C   5,C   4,H  13)     31.9075         0.011572   
    110. D(H  15,C   5,C   4,C   3)    -88.2534         0.011572   
    111. D(N   6,C   5,C   4,H  14)    -94.9661         0.011572   
    112. D(N   6,C   5,C   4,H  13)    146.2613         0.011572   
    113. D(N   6,C   5,C   4,C   3)     26.1004         0.011572   
    114. D(C   1,N   6,C   5,H  15)     89.6711         0.011932   
    115. D(C   1,N   6,C   5,C   4)    -28.1963         0.011932   
    116. D(H  18,N   6,C   1,C   3)   -102.6782         0.012176   
    117. D(H  18,N   6,C   1,C   2)    -38.7925         0.012176   
    118. D(H  18,N   6,C   1,C   0)    111.9899         0.012176   
    119. D(H  17,N   6,C   1,C   3)    139.7803         0.012176   
    120. D(H  17,N   6,C   1,C   2)   -156.3340         0.012176   
    121. D(H  17,N   6,C   1,C   0)     -5.5515         0.012176   
    122. D(C   5,N   6,C   1,C   3)     18.7703         0.012176   
    123. D(C   5,N   6,C   1,C   2)     82.6560         0.012176   
    124. D(C   1,N   6,C   5,H  16)   -152.7678         0.011932   
    125. D(C   5,N   6,C   1,C   0)   -126.5616         0.012176   
    126. D(H  18,N   6,C   5,H  16)    -31.6806         0.011932   
    127. D(H  18,N   6,C   5,H  15)   -149.2418         0.011932   
    128. D(H  18,N   6,C   5,C   4)     92.8908         0.011932   
    129. D(H  17,N   6,C   5,H  16)     86.7512         0.011932   
    130. D(H  17,N   6,C   5,H  15)    -30.8099         0.011932   
    131. D(H  17,N   6,C   5,C   4)   -148.6773         0.011932   
    -----------------------------------------------------------------

Number of atoms                         .... 19
Number of degrees of freedom            .... 131

         *************************************************************
         *                GEOMETRY OPTIMIZATION CYCLE   1            *
         *************************************************************


           ************************************************************
           *        Program running with 8 parallel MPI-processes     *
           *              working on a common directory               *
           ************************************************************
           ************************************************************
           *              Shut down parallel processing               *
           ************************************************************


           ************************************************************
           *        Program running with 8 parallel MPI-processes     *
           *              working on a common directory               *
           ************************************************************
------------
SCF SETTINGS
------------
Hamiltonian:
 Density Functional     Method          .... DFT(GTOs)
 Exchange Functional    Exchange        .... PBE
   PBE kappa parameter  XKappa          ....  0.804000
 Correlation Functional Correlation     .... PBE
 LDA part of GGA corr.  LDAOpt          .... PW91-LDA
 Gradients option       PostSCFGGA      .... off
 Hybrid DFT is turned on
   Fraction HF Exchange ScalHFX         ....  0.250000
   Scaling of DF-GGA-X  ScalDFX         ....  0.750000
   Scaling of DF-GGA-C  ScalDFC         ....  1.000000
   Scaling of DF-LDA-C  ScalLDAC        ....  1.000000
   Perturbative correction              ....  0.000000
   NL short-range parameter             ....  6.900000


General Settings:
 Integral files         IntName         .... 1617_+
 Hartree-Fock type      HFTyp           .... RHF
 Total Charge           Charge          ....    1
 Multiplicity           Mult            ....    1
 Number of Electrons    NEL             ....   54
 Basis Dimension        Dim             ....  289
 Nuclear Repulsion      ENuc            ....    333.0819623781 Eh

Convergence Acceleration:
 DIIS                   CNVDIIS         .... on
   Start iteration      DIISMaxIt       ....    12
   Startup error        DIISStart       ....  0.200000
   # of expansion vecs  DIISMaxEq       ....     5
   Bias factor          DIISBfac        ....   1.050
   Max. coefficient     DIISMaxC        ....  10.000
 Newton-Raphson         CNVNR           .... off
 SOSCF                  CNVSOSCF        .... on
   Start iteration      SOSCFMaxIt      ....   150
   Startup grad/error   SOSCFStart      ....  0.003300
 Level Shifting         CNVShift        .... on
   Level shift para.    LevelShift      ....    0.2500
   Turn off err/grad.   ShiftErr        ....    0.0010
 Zerner damping         CNVZerner       .... off
 Static damping         CNVDamp         .... on
   Fraction old density DampFac         ....    0.7000
   Max. Damping (<1)    DampMax         ....    0.9800
   Min. Damping (>=0)   DampMin         ....    0.0000
   Turn off err/grad.   DampErr         ....    0.1000
 Fernandez-Rico         CNVRico         .... off

SCF Procedure:
 Maximum # iterations   MaxIter         ....   125
 SCF integral mode      SCFMode         .... Direct
   Integral package                     .... LIBINT
 Reset frequeny         DirectResetFreq ....    20
 Integral Threshold     Thresh          ....  2.500e-11 Eh
 Primitive CutOff       TCut            ....  2.500e-12 Eh

Convergence Tolerance:
 Convergence Check Mode ConvCheckMode   .... Total+1el-Energy
 Energy Change          TolE            ....  1.000e-08 Eh
 1-El. energy change                    ....  1.000e-05 Eh
 Orbital Gradient       TolG            ....  1.000e-05
 Orbital Rotation angle TolX            ....  1.000e-05
 DIIS Error             TolErr          ....  5.000e-07


Diagonalization of the overlap matrix:
Smallest eigenvalue                        ... 8.442e-05
Time for diagonalization                   ...    0.156 sec
Threshold for overlap eigenvalues          ... 1.000e-08
Number of eigenvalues below threshold      ... 0
Time for construction of square roots      ...    0.022 sec
Total time needed                          ...    0.178 sec

-------------------
DFT GRID GENERATION
-------------------

General Integration Accuracy     IntAcc      ...  4.340
Radial Grid Type                 RadialGrid  ... Gauss-Chebyshev
Angular Grid (max. acc.)         AngularGrid ... Lebedev-194
Angular grid pruning method      GridPruning ... 3 (G Style)
Weight generation scheme         WeightScheme... Becke
Basis function cutoff            BFCut       ...    1.0000e-11
Integration weight cutoff        WCut        ...    1.0000e-14
Grids for H and He will be reduced by one unit

# of grid points (after initial pruning)     ...  41338 (   0.0 sec)
# of grid points (after weights+screening)   ...  37381 (   0.1 sec)
nearest neighbour list constructed           ...    0.0 sec
Grid point re-assignment to atoms done       ...    0.0 sec
Grid point division into batches done        ...    0.1 sec
Reduced shell lists constructed in    0.1 sec

Total number of grid points                  ...    37381
Total number of batches                      ...      591
Average number of points per batch           ...       63
Average number of grid points per atom       ...     1967
Average number of shells per batch           ...   104.44 (83.55%)
Average number of basis functions per batch  ...   254.87 (88.19%)
Average number of large shells per batch     ...    87.03 (83.33%)
Average number of large basis fcns per batch ...   211.72 (83.07%)
Maximum spatial batch extension              ...   2.48,  2.65,  2.70 au
Average spatial batch extension              ...   0.15,  0.15,  0.16 au

Time for grid setup =    0.572 sec

Loading Hartree-Fock densities                     ... done
Calculating cut-offs                               ... done
Setting up the integral package                    ... done
Initializing the effective Hamiltonian             ... done
Starting the Coulomb interaction                   ... done (   0.0 sec)
Reading the grid                                   ... done
Mapping shells                                     ... done
Starting the XC term evaluation                    ... done (   0.6 sec)
  promolecular density results
     # of electrons  =     54.995176010
     EX              =    -40.866831913
     EC              =     -1.825389986
     EX+EC           =    -42.692221899
Transforming the Hamiltonian                       ... done (   0.0 sec)
Diagonalizing the Hamiltonian                      ... done (   0.4 sec)
Back transforming the eigenvectors                 ... done (   0.0 sec)
Now organizing SCF variables                       ... done
--------------
SCF ITERATIONS
--------------
ITER       Energy         Delta-E        Max-DP      RMS-DP      [F,P]     Damp
               ***  Starting incremental Fock matrix formation  ***
  0   -289.9520098153   0.000000000000 0.03670335  0.00092319  0.1668900 0.7000
  1   -290.0214624995  -0.069452684144 0.03703517  0.00072933  0.0913282 0.7000
                               ***Turning on DIIS***
  2   -290.0524115945  -0.030949095037 0.06549070  0.00138103  0.0387713 0.0000
  3   -290.0970506459  -0.044639051364 0.02638198  0.00043297  0.0463154 0.0000
  4   -290.1081602046  -0.011109558668 0.00898767  0.00013312  0.0082282 0.0000
                      *** Initiating the SOSCF procedure ***
                           *** Shutting down DIIS ***
                      *** Re-Reading the Fockian *** 
                      *** Removing any level shift *** 
ITER      Energy       Delta-E        Grad      Rot      Max-DP    RMS-DP
  5   -290.10854104  -0.0003808376  0.000394  0.000394  0.001900  0.000049
               *** Restarting incremental Fock matrix formation ***
  6   -290.10856519  -0.0000241472  0.000154  0.000469  0.001191  0.000031
  7   -290.10856634  -0.0000011514  0.000128  0.000126  0.000322  0.000008
  8   -290.10856786  -0.0000015221  0.000023  0.000054  0.000121  0.000003
  9   -290.10856787  -0.0000000053  0.000019  0.000021  0.000037  0.000001
                  ***Gradient check signals convergence***
              ***Rediagonalizing the Fockian in SOSCF/NRSCF***

               *****************************************************
               *                     SUCCESS                       *
               *           SCF CONVERGED AFTER  10 CYCLES          *
               *****************************************************

Setting up the final grid:

General Integration Accuracy     IntAcc      ...  5.010
Radial Grid Type                 RadialGrid  ... Gauss-Chebyshev
Angular Grid (max. acc.)         AngularGrid ... Lebedev-434
Angular grid pruning method      GridPruning ... 3 (G Style)
Weight generation scheme         WeightScheme... Becke
Basis function cutoff            BFCut       ...    1.0000e-11
Integration weight cutoff        WCut        ...    1.0000e-14
Grids for H and He will be reduced by one unit

# of grid points (after initial pruning)     ... 155082 (   0.0 sec)
# of grid points (after weights+screening)   ... 138581 (   1.8 sec)
nearest neighbour list constructed           ...    0.0 sec
Grid point re-assignment to atoms done       ...    0.0 sec
Grid point division into batches done        ...    0.8 sec
Reduced shell lists constructed in    1.0 sec

Total number of grid points                  ...   138581
Total number of batches                      ...     2176
Average number of points per batch           ...       63
Average number of grid points per atom       ...     7294
Average number of shells per batch           ...   102.98 (82.38%)
Average number of basis functions per batch  ...   251.46 (87.01%)
Average number of large shells per batch     ...    84.66 (82.21%)
Average number of large basis fcns per batch ...   205.55 (81.74%)
Maximum spatial batch extension              ...   2.32,  2.60,  2.61 au
Average spatial batch extension              ...   0.10,  0.10,  0.10 au

Final grid set up in    5.3 sec
Final integration                            ... done (   1.9 sec)
Change in XC energy                          ...     0.000494693
Integrated number of electrons               ...    54.000011903
Previous integrated no of electrons          ...    54.000616152
Total Energy       :         -290.10807320 Eh           -7894.24201 eV
  Last Energy change         ...   -2.6012e-08  Tolerance :   1.0000e-08
  Last MAX-Density change    ...    1.1408e-05  Tolerance :   1.0000e-07
             **** THE GBW FILE WAS UPDATED (1617_+.gbw) ****
             **** DENSITY FILE WAS UPDATED (1617_+.scfp.tmp) ****
             **** ENERGY FILE WAS UPDATED (1617_+.en.tmp) ****
Total SCF time: 0 days 0 hours 2 min 20 sec 
           ************************************************************
           *              Shut down parallel processing               *
           ************************************************************

-------------------------   --------------------
FINAL SINGLE POINT ENERGY      -290.108073201144
-------------------------   --------------------



           ************************************************************
           *        Program running with 8 parallel MPI-processes     *
           *              working on a common directory               *
           ************************************************************
------------------------------------------------------------------------------
                         ORCA SCF GRADIENT CALCULATION
------------------------------------------------------------------------------

Gradient of the Kohn-Sham DFT energy:
Kohn-Sham wavefunction type      ... RKS
Hartree-Fock exchange scaling    ...    0.250
Number of operators              ...    1
Number of atoms                  ...   19
Basis set dimensions             ...  289
Integral neglect threshold       ... 2.5e-11
Integral primitive cutoff        ... 2.5e-12

Nuclear repulsion gradient       ... done
One Electron Gradient            ... done
Pre-screening matrix             ... done
Starting the two electron gradient:
Two electron gradient done
Exchange-correlation gradient    ... done

------------------
CARTESIAN GRADIENT
------------------

   1   C   :    0.000064353    0.000042897   -0.000057677
   2   C   :   -0.000040416    0.000252174   -0.000333907
   3   C   :    0.000161274    0.000012248    0.000180616
   4   C   :   -0.000212758   -0.000024676    0.000083515
   5   C   :    0.000204269    0.000121655   -0.000148009
   6   C   :    0.000140105   -0.000138486    0.000071136
   7   N   :   -0.000008822   -0.000012725   -0.000049696
   8   H   :    0.000011793    0.000030375   -0.000024369
   9   H   :   -0.000038250   -0.000039250    0.000024457
  10   H   :   -0.000084502   -0.000019833    0.000111793
  11   H   :    0.000070741   -0.000076313   -0.000096098
  12   H   :   -0.000087360   -0.000068230    0.000113658
  13   H   :    0.000048671   -0.000072225   -0.000023478
  14   H   :   -0.000028754    0.000027088    0.000024670
  15   H   :   -0.000091201   -0.000079739    0.000010320
  16   H   :   -0.000099428    0.000094362    0.000034835
  17   H   :   -0.000034900    0.000002819    0.000009598
  18   H   :    0.000026060   -0.000081922    0.000046232
  19   H   :   -0.000000874    0.000029781    0.000022406

Norm of the cartesian gradient     ...    0.000741992
RMS gradient                       ...    0.000098279
MAX gradient                       ...    0.000333907

-------
TIMINGS
-------

Total SCF gradient time            ...       69.111 sec

One electron gradient       ....       0.165 sec  (  0.2%)
Prescreening matrices       ....       0.465 sec  (  0.7%)
Two electron gradient       ....      29.211 sec  ( 42.3%)
XC gradient                 ....       3.288 sec  (  4.8%)
           ************************************************************
           *              Shut down parallel processing               *
           ************************************************************
------------------------------------------------------------------------------
                         ORCA GEOMETRY RELAXATION STEP
------------------------------------------------------------------------------

Reading the OPT-File                    .... done
Getting information on internals        .... done
Copying old internal coords+grads       .... done
Making the new internal coordinates     .... (new redundants).... done
Validating the new internal coordinates .... (new redundants).... done
Calculating the B-matrix                .... done
Calculating the G,G- and P matrices     .... done
Transforming gradient to internals      .... done
Projecting the internal gradient        .... done
Number of atoms                         ....  19
Number of internal coordinates          .... 131
Current Energy                          ....  -290.108073201 Eh
Current gradient norm                   ....     0.000741992 Eh/bohr
Maximum allowed component of the step   ....  0.300
Current trust radius                    ....  0.300
Evaluating the initial hessian          ....  (Almloef) done
Projecting the Hessian                  .... done
Forming the augmented Hessian           .... done
Diagonalizing the augmented Hessian     .... done
Last element of RFO vector              ....  0.999985395
Lowest eigenvalues of augmented Hessian:
 -0.000001095  0.013121173  0.014383381  0.020753050  0.033299221
Length of the computed step             ....  0.005404721
The final length of the internal step   ....  0.005404721
Converting the step to cartesian space:
 Initial RMS(Int)=    0.0004722127
Transforming coordinates:
 Iter   0:  RMS(Cart)=    0.0007279352 RMS(Int)=    0.0004721985
 Iter   1:  RMS(Cart)=    0.0000002810 RMS(Int)=    0.0000001626
 Iter   2:  RMS(Cart)=    0.0000000002 RMS(Int)=    0.0000000001
done
Storing new coordinates                 .... done

                                .--------------------.
          ----------------------|Geometry convergence|---------------------
          Item                value                 Tolerance   Converged
          -----------------------------------------------------------------
          RMS gradient        0.00003900            0.00003000      NO
          MAX gradient        0.00016735            0.00010000      NO
          RMS step            0.00047221            0.00060000      YES
          MAX step            0.00142586            0.00100000      NO
          ....................................................
          Max(Bonds)      0.0003      Max(Angles)    0.02
          Max(Dihed)        0.08      Max(Improp)    0.00
          -----------------------------------------------------------------

The optimization has not yet converged - more geometry cycles are needed


    ---------------------------------------------------------------------------
                         Redundant Internal Coordinates
                            (Angstroem and degrees)

        Definition                    Value    dE/dq     Step     New-Value
    ----------------------------------------------------------------------------
     1. B(C   1,C   0)                1.4939 -0.000047  0.0001    1.4940   
     2. B(C   2,C   1)                1.4906 -0.000167  0.0003    1.4909   
     3. B(C   3,C   1)                1.4981 -0.000029  0.0000    1.4981   
     4. B(C   3,C   2)                1.5017 -0.000016 -0.0001    1.5016   
     5. B(C   4,C   3)                1.5182 -0.000088  0.0001    1.5184   
     6. B(C   5,C   4)                1.5246  0.000083 -0.0001    1.5245   
     7. B(N   6,C   1)                1.5070  0.000045 -0.0001    1.5069   
     8. B(N   6,C   5)                1.5099 -0.000016  0.0000    1.5099   
     9. B(H   7,C   0)                1.0939 -0.000031  0.0000    1.0939   
    10. B(H   8,C   0)                1.0932 -0.000028  0.0000    1.0932   
    11. B(H   9,C   0)                1.0900 -0.000138  0.0002    1.0902   
    12. B(H  10,C   2)                1.0857 -0.000137  0.0002    1.0859   
    13. B(H  11,C   2)                1.0826 -0.000156  0.0002    1.0828   
    14. B(H  12,C   3)                1.0824  0.000067 -0.0001    1.0823   
    15. B(H  13,C   4)                1.0895 -0.000025  0.0000    1.0896   
    16. B(H  14,C   4)                1.0919  0.000015 -0.0000    1.0919   
    17. B(H  15,C   5)                1.0896 -0.000123  0.0002    1.0898   
    18. B(H  16,C   5)                1.0895  0.000034 -0.0000    1.0895   
    19. B(H  17,N   6)                1.0203  0.000080 -0.0001    1.0202   
    20. B(H  18,N   6)                1.0210  0.000037 -0.0000    1.0210   
    21. A(C   1,C   0,H   8)          111.81 -0.000026    0.00    111.82   
    22. A(H   7,C   0,H   8)          109.09 -0.000009    0.00    109.09   
    23. A(C   1,C   0,H   7)          111.82  0.000033   -0.00    111.81   
    24. A(H   7,C   0,H   9)          107.35  0.000002    0.00    107.35   
    25. A(C   1,C   0,H   9)          109.23 -0.000044    0.01    109.23   
    26. A(H   8,C   0,H   9)          107.35  0.000046   -0.01    107.33   
    27. A(C   3,C   1,N   6)          105.59 -0.000016   -0.00    105.59   
    28. A(C   2,C   1,N   6)          112.88  0.000009   -0.01    112.87   
    29. A(C   0,C   1,N   6)          114.64 -0.000010    0.01    114.65   
    30. A(C   0,C   1,C   2)          124.67 -0.000010    0.00    124.67   
    31. A(C   0,C   1,C   3)          127.45  0.000013   -0.01    127.44   
    32. A(C   2,C   1,C   3)           60.32  0.000034   -0.01     60.31   
    33. A(H  10,C   2,H  11)          114.17 -0.000000    0.00    114.17   
    34. A(C   3,C   2,H  11)          118.56  0.000006   -0.00    118.55   
    35. A(C   1,C   2,H  11)          116.18 -0.000017    0.01    116.19   
    36. A(C   3,C   2,H  10)          117.88 -0.000019    0.01    117.89   
    37. A(C   1,C   2,H  10)          119.63  0.000016   -0.01    119.62   
    38. A(C   1,C   2,C   3)           60.09  0.000025   -0.00     60.08   
    39. A(C   2,C   3,C   4)          116.29  0.000018   -0.00    116.29   
    40. A(C   4,C   3,H  12)          119.15 -0.000020    0.00    119.15   
    41. A(C   1,C   3,C   4)          109.29  0.000032   -0.00    109.29   
    42. A(C   1,C   3,H  12)          119.21 -0.000006    0.02    119.23   
    43. A(C   2,C   3,H  12)          118.91  0.000019   -0.01    118.89   
    44. A(C   1,C   3,C   2)           59.59 -0.000059    0.01     59.60   
    45. A(C   3,C   4,H  14)          111.68  0.000048   -0.02    111.66   
    46. A(C   5,C   4,H  13)          109.84 -0.000011    0.01    109.84   
    47. A(C   3,C   4,H  13)          111.72  0.000013   -0.00    111.72   
    48. A(H  13,C   4,H  14)          107.21 -0.000035    0.02    107.23   
    49. A(C   3,C   4,C   5)          104.82  0.000008   -0.01    104.81   
    50. A(C   5,C   4,H  14)          111.63 -0.000023    0.01    111.63   
    51. A(C   4,C   5,N   6)          104.87 -0.000032   -0.00    104.87   
    52. A(H  15,C   5,H  16)          109.05 -0.000024    0.01    109.06   
    53. A(N   6,C   5,H  16)          109.44  0.000024   -0.00    109.44   
    54. A(C   4,C   5,H  16)          115.58 -0.000002    0.01    115.58   
    55. A(N   6,C   5,H  15)          106.17  0.000021   -0.01    106.16   
    56. A(C   4,C   5,H  15)          111.25  0.000016   -0.00    111.25   
    57. A(C   1,N   6,C   5)          107.55  0.000011   -0.01    107.54   
    58. A(H  17,N   6,H  18)          106.62  0.000008   -0.00    106.62   
    59. A(C   5,N   6,H  18)          111.11  0.000007    0.00    111.11   
    60. A(C   1,N   6,H  18)          110.53 -0.000021    0.01    110.54   
    61. A(C   5,N   6,H  17)          110.95 -0.000034    0.01    110.96   
    62. A(C   1,N   6,H  17)          110.11  0.000030   -0.01    110.11   
    63. D(N   6,C   1,C   0,H   8)    -65.70  0.000014   -0.05    -65.75   
    64. D(C   2,C   1,C   0,H   7)   -156.19 -0.000011   -0.03   -156.22   
    65. D(N   6,C   1,C   0,H   9)    175.64  0.000001   -0.04    175.59   
    66. D(C   3,C   1,C   0,H   8)    157.94  0.000042   -0.05    157.89   
    67. D(C   3,C   1,C   0,H   7)    -79.40  0.000035   -0.05    -79.45   
    68. D(C   2,C   1,C   0,H   9)    -37.51 -0.000018   -0.03    -37.54   
    69. D(C   2,C   1,C   0,H   8)     81.15 -0.000005   -0.04     81.12   
    70. D(N   6,C   1,C   0,H   7)     56.96  0.000007   -0.05     56.92   
    71. D(C   3,C   1,C   0,H   9)     39.28  0.000029   -0.04     39.23   
    72. D(H  10,C   2,C   1,N   6)     11.59 -0.000008    0.02     11.60   
    73. D(C   3,C   2,C   1,N   6)    -95.47  0.000011    0.00    -95.47   
    74. D(H  10,C   2,C   1,C   0)   -135.76  0.000016   -0.00   -135.77   
    75. D(H  11,C   2,C   1,C   0)      7.81  0.000013   -0.01      7.80   
    76. D(H  11,C   2,C   1,N   6)    155.16 -0.000011    0.01    155.17   
    77. D(H  11,C   2,C   1,C   3)   -109.37 -0.000022    0.01   -109.36   
    78. D(C   3,C   2,C   1,C   0)    117.18  0.000035   -0.02    117.16   
    79. D(H  10,C   2,C   1,C   3)    107.06 -0.000020    0.02    107.07   
    80. D(C   4,C   3,C   2,C   1)     97.89  0.000006    0.00     97.90   
    81. D(C   4,C   3,C   2,H  10)    -12.04 -0.000030    0.02    -12.02   
    82. D(C   1,C   3,C   2,H  10)   -109.94 -0.000036    0.02   -109.92   
    83. D(H  12,C   3,C   2,C   1)   -108.80  0.000038   -0.03   -108.83   
    84. D(H  12,C   3,C   1,C   2)    108.30  0.000003   -0.02    108.28   
    85. D(H  12,C   3,C   1,C   0)     -4.54 -0.000001   -0.02     -4.56   
    86. D(C   4,C   3,C   1,N   6)     -2.00  0.000027   -0.01     -2.01   
    87. D(H  12,C   3,C   1,N   6)   -143.91  0.000025   -0.03   -143.93   
    88. D(C   1,C   3,C   2,H  11)    105.45 -0.000013    0.01    105.46   
    89. D(C   4,C   3,C   1,C   0)    137.36  0.000001   -0.00    137.36   
    90. D(C   4,C   3,C   2,H  11)   -156.66 -0.000007    0.01   -156.65   
    91. D(C   2,C   3,C   1,N   6)    107.79  0.000022   -0.01    107.78   
    92. D(C   2,C   3,C   1,C   0)   -112.85 -0.000003   -0.00   -112.85   
    93. D(C   4,C   3,C   1,C   2)   -109.79  0.000005   -0.00   -109.80   
    94. D(H  12,C   3,C   2,H  11)     -3.35  0.000025   -0.02     -3.38   
    95. D(H  12,C   3,C   2,H  10)    141.26  0.000002   -0.01    141.25   
    96. D(H  14,C   4,C   3,H  12)   -112.15 -0.000007   -0.01   -112.15   
    97. D(H  14,C   4,C   3,C   2)     41.09  0.000036   -0.04     41.05   
    98. D(H  14,C   4,C   3,C   1)    105.92 -0.000015   -0.03    105.89   
    99. D(H  13,C   4,C   3,H  12)      7.93 -0.000009    0.01      7.93   
   100. D(H  13,C   4,C   3,C   2)    161.16  0.000034   -0.03    161.13   
   101. D(H  13,C   4,C   3,C   1)   -134.00 -0.000017   -0.02   -134.02   
   102. D(C   5,C   4,C   3,H  12)    126.82 -0.000010    0.01    126.83   
   103. D(C   5,C   4,C   3,C   2)    -79.94  0.000033   -0.03    -79.97   
   104. D(C   5,C   4,C   3,C   1)    -15.11 -0.000018   -0.02    -15.13   
   105. D(H  16,C   5,C   4,H  14)     25.62 -0.000042    0.07     25.69   
   106. D(H  16,C   5,C   4,H  13)    -93.15  0.000023    0.03    -93.12   
   107. D(H  16,C   5,C   4,C   3)    146.69  0.000008    0.04    146.73   
   108. D(H  15,C   5,C   4,H  14)    150.68 -0.000063    0.08    150.76   
   109. D(H  15,C   5,C   4,H  13)     31.91  0.000002    0.05     31.95   
   110. D(H  15,C   5,C   4,C   3)    -88.25 -0.000013    0.05    -88.20   
   111. D(N   6,C   5,C   4,H  14)    -94.97 -0.000048    0.07    -94.90   
   112. D(N   6,C   5,C   4,H  13)    146.26  0.000017    0.03    146.30   
   113. D(N   6,C   5,C   4,C   3)     26.10  0.000002    0.04     26.14   
   114. D(C   1,N   6,C   5,H  15)     89.67  0.000031   -0.06     89.61   
   115. D(C   1,N   6,C   5,C   4)    -28.20  0.000018   -0.05    -28.25   
   116. D(H  18,N   6,C   1,C   3)   -102.68 -0.000017    0.04   -102.64   
   117. D(H  18,N   6,C   1,C   2)    -38.79  0.000016    0.02    -38.77   
   118. D(H  18,N   6,C   1,C   0)    111.99 -0.000006    0.04    112.03   
   119. D(H  17,N   6,C   1,C   3)    139.78 -0.000032    0.04    139.82   
   120. D(H  17,N   6,C   1,C   2)   -156.33  0.000001    0.03   -156.31   
   121. D(H  17,N   6,C   1,C   0)     -5.55 -0.000021    0.04     -5.51   
   122. D(C   5,N   6,C   1,C   3)     18.77 -0.000014    0.04     18.81   
   123. D(C   5,N   6,C   1,C   2)     82.66  0.000018    0.02     82.68   
   124. D(C   1,N   6,C   5,H  16)   -152.77  0.000027   -0.05   -152.82   
   125. D(C   5,N   6,C   1,C   0)   -126.56 -0.000004    0.04   -126.52   
   126. D(H  18,N   6,C   5,H  16)    -31.68  0.000011   -0.05    -31.73   
   127. D(H  18,N   6,C   5,H  15)   -149.24  0.000015   -0.06   -149.30   
   128. D(H  18,N   6,C   5,C   4)     92.89  0.000003   -0.05     92.84   
   129. D(H  17,N   6,C   5,H  16)     86.75  0.000004   -0.05     86.70   
   130. D(H  17,N   6,C   5,H  15)    -30.81  0.000008   -0.05    -30.86   
   131. D(H  17,N   6,C   5,C   4)   -148.68 -0.000004   -0.04   -148.72   
    ----------------------------------------------------------------------------

         *************************************************************
         *                GEOMETRY OPTIMIZATION CYCLE   2            *
         *************************************************************
---------------------------------
CARTESIAN COORDINATES (ANGSTROEM)
---------------------------------
  C      2.167812   -0.000282   -0.036497
  C      0.700163    0.278916   -0.045102
  C      0.047763    1.363598   -0.832848
  C     -0.287483   -0.072575   -1.115340
  C     -1.555199   -0.606176   -0.472228
  C     -1.159716   -0.921226    0.965952
  N     -0.000247    0.000239    1.259711
  H      2.383009   -1.035492    0.244032
  H      2.705347    0.672000    0.637511
  H      2.568828    0.155184   -1.038248
  H     -0.714574    1.980971   -0.367155
  H      0.682021    1.894178   -1.531876
  H      0.066570   -0.521239   -2.034474
  H     -1.907393   -1.511475   -0.965738
  H     -2.366978    0.122728   -0.515972
  H     -0.771291   -1.935457    1.055543
  H     -1.939610   -0.771731    1.711874
  H      0.647795   -0.427987    1.921122
  H     -0.321069    0.870243    1.686941

----------------------------
CARTESIAN COORDINATES (A.U.)
----------------------------
  NO LB      ZA    FRAG    MASS        X           Y           Z
   0 C     6.0000    0    12.011          4.096571429587859         -0.000533705133864         -0.068969061792864
   1 C     6.0000    0    12.011          1.323116516363485          0.527075447641398         -0.085229761478233
   2 C     6.0000    0    12.011          0.090258213874834          2.576826819137406         -1.573854286042437
   3 C     6.0000    0    12.011         -0.543263375473641         -0.137147170883016         -2.107686410021162
   4 C     6.0000    0    12.011         -2.938900813211295         -1.145506623006121         -0.892381096836904
   5 C     6.0000    0    12.011         -2.191545673987214         -1.740864985273027          1.825384606107932
   6 N     7.0000    0    14.007         -0.000466367759640          0.000451536995613          2.380508267994536
   7 H     1.0000    0     1.008          4.503234651736959         -1.956795737943193          0.461153992912478
   8 H     1.0000    0     1.008          5.112365723722935          1.269895323987884          1.204721021927876
   9 H     1.0000    0     1.008          4.854381862247843          0.293254344417464         -1.962004769946450
  10 H     1.0000    0     1.008         -1.350349055668917          3.743492531747796         -0.693821529048035
  11 H     1.0000    0     1.008          1.288832220093582          3.579478539451036         -2.894825969363927
  12 H     1.0000    0     1.008          0.125798791003053         -0.984999832340599         -3.844599517356786
  13 H     1.0000    0     1.008         -3.604450643257190         -2.856274191413937         -1.824980761595011
  14 H     1.0000    0     1.008         -4.472939681531026          0.231923090024905         -0.975045177175023
  15 H     1.0000    0     1.008         -1.457528902431047         -3.657482927337696          1.994686786386434
  16 H     1.0000    0     1.008         -3.665330779708236         -1.458359553171951          3.234973452258243
  17 H     1.0000    0     1.008          1.224155189875932         -0.808778262403425          3.630395137939130
  18 H     1.0000    0     1.008         -0.606732620071161          1.644521005184265          3.187856355762710

--------------------------------
INTERNAL COORDINATES (ANGSTROEM)
--------------------------------
 C      0   0   0   0.000000     0.000     0.000
 C      1   0   0   1.493995     0.000     0.000
 C      2   1   0   1.490874   124.673     0.000
 C      2   1   3   1.498132   127.437    76.772
 C      4   2   1   1.518364   109.287   137.358
 C      5   4   2   1.524475   104.810   344.874
 N      2   1   3   1.506908   114.649   213.135
 H      1   2   3   1.093922   111.813   203.782
 H      1   2   3   1.093249   111.817    81.116
 H      1   2   3   1.090179   109.233   322.458
 H      3   2   1   1.085899   119.620   224.233
 H      3   2   1   1.082792   116.186     7.797
 H      4   2   1   1.082341   119.227   355.437
 H      5   4   2   1.089569   111.718   225.977
 H      5   4   2   1.091879   111.664   105.892
 H      6   5   4   1.089754   111.245   271.801
 H      6   5   4   1.089487   115.584   146.729
 H      7   2   1   1.020197   110.105   354.489
 H      7   2   1   1.020960   110.537   112.029

---------------------------
INTERNAL COORDINATES (A.U.)
---------------------------
 C      0   0   0   0.000000     0.000     0.000
 C      1   0   0   2.823241     0.000     0.000
 C      2   1   0   2.817343   124.673     0.000
 C      2   1   3   2.831059   127.437    76.772
 C      4   2   1   2.869292   109.287   137.358
 C      5   4   2   2.880840   104.810   344.874
 N      2   1   3   2.847643   114.649   213.135
 H      1   2   3   2.067212   111.813   203.782
 H      1   2   3   2.065942   111.817    81.116
 H      1   2   3   2.060139   109.233   322.458
 H      3   2   1   2.052052   119.620   224.233
 H      3   2   1   2.046181   116.186     7.797
 H      4   2   1   2.045328   119.227   355.437
 H      5   4   2   2.058986   111.718   225.977
 H      5   4   2   2.063352   111.664   105.892
 H      6   5   4   2.059337   111.245   271.801
 H      6   5   4   2.058833   115.584   146.729
 H      7   2   1   1.927892   110.105   354.489
 H      7   2   1   1.929335   110.537   112.029



           ************************************************************
           *        Program running with 8 parallel MPI-processes     *
           *              working on a common directory               *
           ************************************************************
           ************************************************************
           *              Shut down parallel processing               *
           ************************************************************


           ************************************************************
           *        Program running with 8 parallel MPI-processes     *
           *              working on a common directory               *
           ************************************************************

Diagonalization of the overlap matrix:
Smallest eigenvalue                        ... 8.442e-05
Time for diagonalization                   ...    0.430 sec
Threshold for overlap eigenvalues          ... 1.000e-08
Number of eigenvalues below threshold      ... 0
Time for construction of square roots      ...    0.063 sec
Total time needed                          ...    0.493 sec

-------------------
DFT GRID GENERATION
-------------------

General Integration Accuracy     IntAcc      ...  4.340
Radial Grid Type                 RadialGrid  ... Gauss-Chebyshev
Angular Grid (max. acc.)         AngularGrid ... Lebedev-194
Angular grid pruning method      GridPruning ... 3 (G Style)
Weight generation scheme         WeightScheme... Becke
Basis function cutoff            BFCut       ...    1.0000e-11
Integration weight cutoff        WCut        ...    1.0000e-14
Grids for H and He will be reduced by one unit

# of grid points (after initial pruning)     ...  41338 (   0.0 sec)
# of grid points (after weights+screening)   ...  37381 (   0.1 sec)
nearest neighbour list constructed           ...    0.0 sec
Grid point re-assignment to atoms done       ...    0.0 sec
Grid point division into batches done        ...    0.1 sec
Reduced shell lists constructed in    0.1 sec

Total number of grid points                  ...    37381
Total number of batches                      ...      591
Average number of points per batch           ...       63
Average number of grid points per atom       ...     1967
Average number of shells per batch           ...   104.44 (83.55%)
Average number of basis functions per batch  ...   254.87 (88.19%)
Average number of large shells per batch     ...    87.01 (83.31%)
Average number of large basis fcns per batch ...   211.71 (83.07%)
Maximum spatial batch extension              ...   2.48,  2.65,  2.70 au
Average spatial batch extension              ...   0.15,  0.15,  0.16 au

Time for grid setup =    0.562 sec

--------------
SCF ITERATIONS
--------------
ITER       Energy         Delta-E        Max-DP      RMS-DP      [F,P]     Damp
               ***  Starting incremental Fock matrix formation  ***
                      *** Initiating the SOSCF procedure ***
                      *** Re-Reading the Fockian *** 
                      *** Removing any level shift *** 
ITER      Energy       Delta-E        Grad      Rot      Max-DP    RMS-DP
  0   -290.10856814 -290.1085681413  0.000066  0.000066  0.000142  0.000004
               *** Restarting incremental Fock matrix formation ***
  1   -290.10856862  -0.0000004822  0.000018  0.000044  0.000051  0.000002
  2   -290.10856867  -0.0000000429  0.000009  0.000022  0.000025  0.000001
  3   -290.10856867  -0.0000000028  0.000006  0.000009  0.000013  0.000000
                  ***Gradient check signals convergence***
              ***Rediagonalizing the Fockian in SOSCF/NRSCF***

               *****************************************************
               *                     SUCCESS                       *
               *           SCF CONVERGED AFTER   4 CYCLES          *
               *****************************************************

Setting up the final grid:

General Integration Accuracy     IntAcc      ...  5.010
Radial Grid Type                 RadialGrid  ... Gauss-Chebyshev
Angular Grid (max. acc.)         AngularGrid ... Lebedev-434
Angular grid pruning method      GridPruning ... 3 (G Style)
Weight generation scheme         WeightScheme... Becke
Basis function cutoff            BFCut       ...    1.0000e-11
Integration weight cutoff        WCut        ...    1.0000e-14
Grids for H and He will be reduced by one unit

# of grid points (after initial pruning)     ... 155082 (   0.0 sec)
# of grid points (after weights+screening)   ... 138584 (   0.2 sec)
nearest neighbour list constructed           ...    0.0 sec
Grid point re-assignment to atoms done       ...    0.0 sec
Grid point division into batches done        ...    0.8 sec
Reduced shell lists constructed in    1.1 sec

Total number of grid points                  ...   138584
Total number of batches                      ...     2175
Average number of points per batch           ...       63
Average number of grid points per atom       ...     7294
Average number of shells per batch           ...   103.01 (82.41%)
Average number of basis functions per batch  ...   251.55 (87.04%)
Average number of large shells per batch     ...    84.71 (82.23%)
Average number of large basis fcns per batch ...   205.71 (81.78%)
Maximum spatial batch extension              ...   2.32,  2.60,  2.61 au
Average spatial batch extension              ...   0.10,  0.10,  0.10 au

Final grid set up in    3.5 sec
Final integration                            ... done (   2.0 sec)
Change in XC energy                          ...     0.000494668
Integrated number of electrons               ...    54.000012356
Previous integrated no of electrons          ...    54.000618171
Total Energy       :         -290.10807400 Eh           -7894.24203 eV
  Last Energy change         ...   -3.9702e-09  Tolerance :   1.0000e-08
  Last MAX-Density change    ...    2.3161e-06  Tolerance :   1.0000e-07
             **** THE GBW FILE WAS UPDATED (1617_+.gbw) ****
             **** DENSITY FILE WAS UPDATED (1617_+.scfp.tmp) ****
             **** ENERGY FILE WAS UPDATED (1617_+.en.tmp) ****
Total SCF time: 0 days 0 hours 1 min 1 sec 
           ************************************************************
           *              Shut down parallel processing               *
           ************************************************************

-------------------------   --------------------
FINAL SINGLE POINT ENERGY      -290.108074004813
-------------------------   --------------------



           ************************************************************
           *        Program running with 8 parallel MPI-processes     *
           *              working on a common directory               *
           ************************************************************
------------------------------------------------------------------------------
                         ORCA SCF GRADIENT CALCULATION
------------------------------------------------------------------------------

Gradient of the Kohn-Sham DFT energy:
Kohn-Sham wavefunction type      ... RKS
Hartree-Fock exchange scaling    ...    0.250
Number of operators              ...    1
Number of atoms                  ...   19
Basis set dimensions             ...  289
Integral neglect threshold       ... 2.5e-11
Integral primitive cutoff        ... 2.5e-12

Nuclear repulsion gradient       ... done
One Electron Gradient            ... done
Pre-screening matrix             ... done
Starting the two electron gradient:
Two electron gradient done
Exchange-correlation gradient    ... done

------------------
CARTESIAN GRADIENT
------------------

   1   C   :    0.000021865    0.000008229    0.000011299
   2   C   :   -0.000033336    0.000136921   -0.000170326
   3   C   :    0.000084907   -0.000056000    0.000132242
   4   C   :   -0.000116077   -0.000049153    0.000017146
   5   C   :    0.000121282    0.000101244   -0.000081911
   6   C   :    0.000062725   -0.000025406    0.000037908
   7   N   :    0.000012102    0.000002978    0.000023932
   8   H   :    0.000010060    0.000002613   -0.000012921
   9   H   :   -0.000018673   -0.000014099    0.000025957
  10   H   :   -0.000015764    0.000006671   -0.000002199
  11   H   :   -0.000018158   -0.000002762   -0.000028535
  12   H   :   -0.000002455    0.000004980    0.000004365
  13   H   :    0.000012743   -0.000020406    0.000012856
  14   H   :   -0.000016259   -0.000002236    0.000003472
  15   H   :   -0.000055933   -0.000057084    0.000006718
  16   H   :   -0.000043124   -0.000010284    0.000034031
  17   H   :   -0.000009426    0.000011837   -0.000012901
  18   H   :   -0.000012059   -0.000031418   -0.000015694
  19   H   :    0.000015581   -0.000006624    0.000014561

Norm of the cartesian gradient     ...    0.000384479
RMS gradient                       ...    0.000050925
MAX gradient                       ...    0.000170326

-------
TIMINGS
-------

Total SCF gradient time            ...       66.194 sec

One electron gradient       ....       0.241 sec  (  0.4%)
Prescreening matrices       ....       0.930 sec  (  1.4%)
Two electron gradient       ....      57.141 sec  ( 86.3%)
XC gradient                 ....       3.397 sec  (  5.1%)
           ************************************************************
           *              Shut down parallel processing               *
           ************************************************************
------------------------------------------------------------------------------
                         ORCA GEOMETRY RELAXATION STEP
------------------------------------------------------------------------------

Reading the OPT-File                    .... done
Getting information on internals        .... done
Copying old internal coords+grads       .... done
Making the new internal coordinates     .... (new redundants).... done
Validating the new internal coordinates .... (new redundants).... done
Calculating the B-matrix                .... done
Calculating the G,G- and P matrices     .... done
Transforming gradient to internals      .... done
Projecting the internal gradient        .... done
Number of atoms                         ....  19
Number of internal coordinates          .... 131
Current Energy                          ....  -290.108074005 Eh
Current gradient norm                   ....     0.000384479 Eh/bohr
Maximum allowed component of the step   ....  0.300
Current trust radius                    ....  0.300
Updating the Hessian (BFGS)             .... done
Forming the augmented Hessian           .... done
Diagonalizing the augmented Hessian     .... done
Last element of RFO vector              ....  0.999926442
Lowest eigenvalues of augmented Hessian:
 -0.000001160  0.006763997  0.014151509  0.020670365  0.032253496
Length of the computed step             ....  0.012129798
The final length of the internal step   ....  0.012129798
Converting the step to cartesian space:
 Initial RMS(Int)=    0.0010597854
Transforming coordinates:
 Iter   0:  RMS(Cart)=    0.0016388462 RMS(Int)=    0.0010597168
 Iter   1:  RMS(Cart)=    0.0000014271 RMS(Int)=    0.0000008171
 Iter   2:  RMS(Cart)=    0.0000000024 RMS(Int)=    0.0000000017
done
Storing new coordinates                 .... done

                                .--------------------.
          ----------------------|Geometry convergence|---------------------
          Item                value                 Tolerance   Converged
          -----------------------------------------------------------------
          Energy change      -0.00000080            0.00000100      YES
          RMS gradient        0.00001575            0.00003000      YES
          MAX gradient        0.00007646            0.00010000      YES
          RMS step            0.00105979            0.00060000      NO
          MAX step            0.00311103            0.00100000      NO
          ....................................................
          Max(Bonds)      0.0004      Max(Angles)    0.04
          Max(Dihed)        0.18      Max(Improp)    0.00
          -----------------------------------------------------------------

       The energies and gradients are converged
       and the convergence on bond distances, angles, dihedrals and impropers
       is acceptable.
       Convergence will therefore be signaled now


                    ***********************HURRAY********************
                    ***        THE OPTIMIZATION HAS CONVERGED     ***
                    *************************************************


    ---------------------------------------------------------------------------
                         Redundant Internal Coordinates

                          --- Optimized Parameters ---  
                            (Angstroem and degrees)

        Definition                    OldVal   dE/dq     Step     FinalVal
    ----------------------------------------------------------------------------
     1. B(C   1,C   0)                1.4940 -0.000001  0.0000    1.4940   
     2. B(C   2,C   1)                1.4909 -0.000076  0.0004    1.4913   
     3. B(C   3,C   1)                1.4981 -0.000006  0.0000    1.4982   
     4. B(C   3,C   2)                1.5016 -0.000000 -0.0001    1.5015   
     5. B(C   4,C   3)                1.5184 -0.000059  0.0002    1.5186   
     6. B(C   5,C   4)                1.5245  0.000049 -0.0002    1.5243   
     7. B(N   6,C   1)                1.5069  0.000026 -0.0001    1.5068   
     8. B(N   6,C   5)                1.5099 -0.000009  0.0000    1.5099   
     9. B(H   7,C   0)                1.0939 -0.000002  0.0000    1.0939   
    10. B(H   8,C   0)                1.0932 -0.000002  0.0000    1.0933   
    11. B(H   9,C   0)                1.0902 -0.000005  0.0001    1.0903   
    12. B(H  10,C   2)                1.0859 -0.000004  0.0001    1.0860   
    13. B(H  11,C   2)                1.0828 -0.000000  0.0001    1.0829   
    14. B(H  12,C   3)                1.0823  0.000003 -0.0001    1.0823   
    15. B(H  13,C   4)                1.0896  0.000005  0.0000    1.0896   
    16. B(H  14,C   4)                1.0919  0.000004 -0.0000    1.0919   
    17. B(H  15,C   5)                1.0898 -0.000006  0.0001    1.0899   
    18. B(H  16,C   5)                1.0895  0.000001 -0.0000    1.0895   
    19. B(H  17,N   6)                1.0202 -0.000006 -0.0000    1.0202   
    20. B(H  18,N   6)                1.0210 -0.000003 -0.0000    1.0209   
    21. A(C   1,C   0,H   8)          111.82 -0.000022    0.01    111.83   
    22. A(H   7,C   0,H   8)          109.09 -0.000003    0.01    109.10   
    23. A(C   1,C   0,H   7)          111.81  0.000019   -0.01    111.81   
    24. A(H   7,C   0,H   9)          107.35 -0.000000    0.00    107.35   
    25. A(C   1,C   0,H   9)          109.23 -0.000017    0.01    109.24   
    26. A(H   8,C   0,H   9)          107.33  0.000025   -0.02    107.32   
    27. A(C   3,C   1,N   6)          105.59 -0.000006   -0.00    105.59   
    28. A(C   2,C   1,N   6)          112.87  0.000004   -0.01    112.86   
    29. A(C   0,C   1,N   6)          114.65 -0.000008    0.02    114.67   
    30. A(C   0,C   1,C   2)          124.67 -0.000003    0.00    124.68   
    31. A(C   0,C   1,C   3)          127.44  0.000007   -0.02    127.42   
    32. A(C   2,C   1,C   3)           60.31  0.000017   -0.01     60.30   
    33. A(H  10,C   2,H  11)          114.17 -0.000001    0.00    114.18   
    34. A(C   3,C   2,H  11)          118.55  0.000001   -0.00    118.55   
    35. A(C   1,C   2,H  11)          116.19 -0.000009    0.01    116.19   
    36. A(C   3,C   2,H  10)          117.89 -0.000011    0.02    117.91   
    37. A(C   1,C   2,H  10)          119.62  0.000012   -0.03    119.59   
    38. A(C   1,C   2,C   3)           60.08  0.000013   -0.01     60.08   
    39. A(C   2,C   3,C   4)          116.29  0.000008   -0.00    116.29   
    40. A(C   4,C   3,H  12)          119.15 -0.000010    0.00    119.15   
    41. A(C   1,C   3,C   4)          109.29  0.000018   -0.01    109.28   
    42. A(C   1,C   3,H  12)          119.23 -0.000004    0.03    119.25   
    43. A(C   2,C   3,H  12)          118.89  0.000010   -0.02    118.87   
    44. A(C   1,C   3,C   2)           59.60 -0.000030    0.02     59.62   
    45. A(C   3,C   4,H  14)          111.66  0.000031   -0.03    111.63   
    46. A(C   5,C   4,H  13)          109.84 -0.000005    0.01    109.86   
    47. A(C   3,C   4,H  13)          111.72  0.000007   -0.01    111.71   
    48. A(H  13,C   4,H  14)          107.23 -0.000021    0.04    107.27   
    49. A(C   3,C   4,C   5)          104.81  0.000003   -0.02    104.79   
    50. A(C   5,C   4,H  14)          111.63 -0.000014    0.01    111.64   
    51. A(C   4,C   5,N   6)          104.87 -0.000011   -0.01    104.86   
    52. A(H  15,C   5,H  16)          109.06 -0.000012    0.02    109.08   
    53. A(N   6,C   5,H  16)          109.44  0.000011   -0.00    109.44   
    54. A(C   4,C   5,H  16)          115.58 -0.000007    0.02    115.60   
    55. A(N   6,C   5,H  15)          106.16  0.000013   -0.02    106.14   
    56. A(C   4,C   5,H  15)          111.25  0.000009   -0.01    111.24   
    57. A(C   1,N   6,C   5)          107.54 -0.000001   -0.02    107.52   
    58. A(H  17,N   6,H  18)          106.62  0.000002   -0.00    106.62   
    59. A(C   5,N   6,H  18)          111.11  0.000008    0.00    111.11   
    60. A(C   1,N   6,H  18)          110.54 -0.000010    0.01    110.55   
    61. A(C   5,N   6,H  17)          110.96 -0.000016    0.02    110.98   
    62. A(C   1,N   6,H  17)          110.11  0.000017   -0.01    110.10   
    63. D(N   6,C   1,C   0,H   8)    -65.75  0.000012   -0.11    -65.86   
    64. D(C   2,C   1,C   0,H   7)   -156.22 -0.000006   -0.07   -156.29   
    65. D(N   6,C   1,C   0,H   9)    175.59  0.000006   -0.10    175.50   
    66. D(C   3,C   1,C   0,H   8)    157.89  0.000026   -0.11    157.78   
    67. D(C   3,C   1,C   0,H   7)    -79.45  0.000019   -0.10    -79.55   
    68. D(C   2,C   1,C   0,H   9)    -37.54 -0.000005   -0.07    -37.61   
    69. D(C   2,C   1,C   0,H   8)     81.12  0.000001   -0.08     81.03   
    70. D(N   6,C   1,C   0,H   7)     56.92  0.000005   -0.10     56.82   
    71. D(C   3,C   1,C   0,H   9)     39.23  0.000020   -0.10     39.13   
    72. D(H  10,C   2,C   1,N   6)     11.60 -0.000009    0.04     11.64   
    73. D(C   3,C   2,C   1,N   6)    -95.47  0.000004    0.01    -95.46   
    74. D(H  10,C   2,C   1,C   0)   -135.77  0.000005    0.01   -135.76   
    75. D(H  11,C   2,C   1,C   0)      7.80  0.000009   -0.02      7.78   
    76. D(H  11,C   2,C   1,N   6)    155.17 -0.000006    0.01    155.18   
    77. D(H  11,C   2,C   1,C   3)   -109.36 -0.000009    0.01   -109.36   
    78. D(C   3,C   2,C   1,C   0)    117.16  0.000018   -0.03    117.13   
    79. D(H  10,C   2,C   1,C   3)    107.07 -0.000013    0.03    107.11   
    80. D(C   4,C   3,C   2,C   1)     97.90  0.000006   -0.00     97.89   
    81. D(C   4,C   3,C   2,H  10)    -12.02 -0.000018    0.04    -11.98   
    82. D(C   1,C   3,C   2,H  10)   -109.92 -0.000024    0.04   -109.87   
    83. D(H  12,C   3,C   2,C   1)   -108.83  0.000021   -0.05   -108.88   
    84. D(H  12,C   3,C   1,C   2)    108.28  0.000003   -0.03    108.25   
    85. D(H  12,C   3,C   1,C   0)     -4.56 -0.000001   -0.03     -4.60   
    86. D(C   4,C   3,C   1,N   6)     -2.01  0.000014   -0.02     -2.03   
    87. D(H  12,C   3,C   1,N   6)   -143.93  0.000012   -0.04   -143.98   
    88. D(C   1,C   3,C   2,H  11)    105.46 -0.000006    0.01    105.46   
    89. D(C   4,C   3,C   1,C   0)    137.36  0.000001   -0.01    137.35   
    90. D(C   4,C   3,C   2,H  11)   -156.65 -0.000000    0.00   -156.65   
    91. D(C   2,C   3,C   1,N   6)    107.78  0.000010   -0.01    107.77   
    92. D(C   2,C   3,C   1,C   0)   -112.85 -0.000004   -0.00   -112.85   
    93. D(C   4,C   3,C   1,C   2)   -109.80  0.000005   -0.01   -109.80   
    94. D(H  12,C   3,C   2,H  11)     -3.38  0.000015   -0.04     -3.42   
    95. D(H  12,C   3,C   2,H  10)    141.25 -0.000003   -0.01    141.24   
    96. D(H  14,C   4,C   3,H  12)   -112.15 -0.000002   -0.03   -112.19   
    97. D(H  14,C   4,C   3,C   2)     41.05  0.000019   -0.09     40.96   
    98. D(H  14,C   4,C   3,C   1)    105.89 -0.000006   -0.07    105.82   
    99. D(H  13,C   4,C   3,H  12)      7.93 -0.000003   -0.01      7.92   
   100. D(H  13,C   4,C   3,C   2)    161.13  0.000018   -0.07    161.06   
   101. D(H  13,C   4,C   3,C   1)   -134.02 -0.000007   -0.05   -134.07   
   102. D(C   5,C   4,C   3,H  12)    126.83 -0.000004   -0.02    126.81   
   103. D(C   5,C   4,C   3,C   2)    -79.97  0.000017   -0.07    -80.04   
   104. D(C   5,C   4,C   3,C   1)    -15.13 -0.000008   -0.05    -15.18   
   105. D(H  16,C   5,C   4,H  14)     25.69 -0.000029    0.15     25.84   
   106. D(H  16,C   5,C   4,H  13)    -93.12  0.000009    0.09    -93.03   
   107. D(H  16,C   5,C   4,C   3)    146.73  0.000003    0.10    146.83   
   108. D(H  15,C   5,C   4,H  14)    150.76 -0.000043    0.18    150.94   
   109. D(H  15,C   5,C   4,H  13)     31.95 -0.000005    0.12     32.07   
   110. D(H  15,C   5,C   4,C   3)    -88.20 -0.000012    0.13    -88.07   
   111. D(N   6,C   5,C   4,H  14)    -94.90 -0.000031    0.15    -94.75   
   112. D(N   6,C   5,C   4,H  13)    146.30  0.000008    0.09    146.38   
   113. D(N   6,C   5,C   4,C   3)     26.14  0.000001    0.10     26.24   
   114. D(C   1,N   6,C   5,H  15)     89.61  0.000023   -0.14     89.47   
   115. D(C   1,N   6,C   5,C   4)    -28.25  0.000012   -0.12    -28.36   
   116. D(H  18,N   6,C   1,C   3)   -102.64 -0.000012    0.09   -102.56   
   117. D(H  18,N   6,C   1,C   2)    -38.77  0.000004    0.07    -38.70   
   118. D(H  18,N   6,C   1,C   0)    112.03 -0.000007    0.09    112.12   
   119. D(H  17,N   6,C   1,C   3)    139.82 -0.000019    0.09    139.90   
   120. D(H  17,N   6,C   1,C   2)   -156.31 -0.000003    0.07   -156.24   
   121. D(H  17,N   6,C   1,C   0)     -5.51 -0.000014    0.09     -5.42   
   122. D(C   5,N   6,C   1,C   3)     18.81 -0.000009    0.08     18.89   
   123. D(C   5,N   6,C   1,C   2)     82.68  0.000007    0.06     82.74   
   124. D(C   1,N   6,C   5,H  16)   -152.82  0.000020   -0.13   -152.95   
   125. D(C   5,N   6,C   1,C   0)   -126.52 -0.000004    0.09   -126.44   
   126. D(H  18,N   6,C   5,H  16)    -31.73  0.000012   -0.13    -31.86   
   127. D(H  18,N   6,C   5,H  15)   -149.30  0.000014   -0.14   -149.44   
   128. D(H  18,N   6,C   5,C   4)     92.84  0.000003   -0.12     92.73   
   129. D(H  17,N   6,C   5,H  16)     86.70  0.000010   -0.12     86.59   
   130. D(H  17,N   6,C   5,H  15)    -30.86  0.000012   -0.13    -30.99   
   131. D(H  17,N   6,C   5,C   4)   -148.72  0.000001   -0.11   -148.83   
    ----------------------------------------------------------------------------
                 *******************************************************
                 *** FINAL ENERGY EVALUATION AT THE STATIONARY POINT ***
                 ***               (AFTER    2 CYCLES)               ***
                 *******************************************************


           ************************************************************
           *        Program running with 8 parallel MPI-processes     *
           *              working on a common directory               *
           ************************************************************
           ************************************************************
           *              Shut down parallel processing               *
           ************************************************************


           ************************************************************
           *        Program running with 8 parallel MPI-processes     *
           *              working on a common directory               *
           ************************************************************
------------
SCF SETTINGS
------------
Hamiltonian:
 Density Functional     Method          .... DFT(GTOs)
 Exchange Functional    Exchange        .... PBE
   PBE kappa parameter  XKappa          ....  0.804000
 Correlation Functional Correlation     .... PBE
 LDA part of GGA corr.  LDAOpt          .... PW91-LDA
 Gradients option       PostSCFGGA      .... off
 Hybrid DFT is turned on
   Fraction HF Exchange ScalHFX         ....  0.250000
   Scaling of DF-GGA-X  ScalDFX         ....  0.750000
   Scaling of DF-GGA-C  ScalDFC         ....  1.000000
   Scaling of DF-LDA-C  ScalLDAC        ....  1.000000
   Perturbative correction              ....  0.000000
   NL short-range parameter             ....  6.900000


General Settings:
 Integral files         IntName         .... 1617_+
 Hartree-Fock type      HFTyp           .... RHF
 Total Charge           Charge          ....    1
 Multiplicity           Mult            ....    1
 Number of Electrons    NEL             ....   54
 Basis Dimension        Dim             ....  289
 Nuclear Repulsion      ENuc            ....    333.0777352456 Eh

Convergence Acceleration:
 DIIS                   CNVDIIS         .... on
   Start iteration      DIISMaxIt       ....    12
   Startup error        DIISStart       ....  0.200000
   # of expansion vecs  DIISMaxEq       ....     5
   Bias factor          DIISBfac        ....   1.050
   Max. coefficient     DIISMaxC        ....  10.000
 Newton-Raphson         CNVNR           .... off
 SOSCF                  CNVSOSCF        .... on
   Start iteration      SOSCFMaxIt      ....   150
   Startup grad/error   SOSCFStart      ....  0.003300
 Level Shifting         CNVShift        .... on
   Level shift para.    LevelShift      ....    0.2500
   Turn off err/grad.   ShiftErr        ....    0.0010
 Zerner damping         CNVZerner       .... off
 Static damping         CNVDamp         .... on
   Fraction old density DampFac         ....    0.7000
   Max. Damping (<1)    DampMax         ....    0.9800
   Min. Damping (>=0)   DampMin         ....    0.0000
   Turn off err/grad.   DampErr         ....    0.1000
 Fernandez-Rico         CNVRico         .... off

SCF Procedure:
 Maximum # iterations   MaxIter         ....   125
 SCF integral mode      SCFMode         .... Direct
   Integral package                     .... LIBINT
 Reset frequeny         DirectResetFreq ....    20
 Integral Threshold     Thresh          ....  2.500e-11 Eh
 Primitive CutOff       TCut            ....  2.500e-12 Eh

Convergence Tolerance:
 Convergence Check Mode ConvCheckMode   .... Total+1el-Energy
 Energy Change          TolE            ....  1.000e-08 Eh
 1-El. energy change                    ....  1.000e-05 Eh
 Orbital Gradient       TolG            ....  1.000e-05
 Orbital Rotation angle TolX            ....  1.000e-05
 DIIS Error             TolErr          ....  5.000e-07


Diagonalization of the overlap matrix:
Smallest eigenvalue                        ... 8.443e-05
Time for diagonalization                   ...    0.250 sec
Threshold for overlap eigenvalues          ... 1.000e-08
Number of eigenvalues below threshold      ... 0
Time for construction of square roots      ...    0.045 sec
Total time needed                          ...    0.295 sec

-------------------
DFT GRID GENERATION
-------------------

General Integration Accuracy     IntAcc      ...  4.340
Radial Grid Type                 RadialGrid  ... Gauss-Chebyshev
Angular Grid (max. acc.)         AngularGrid ... Lebedev-194
Angular grid pruning method      GridPruning ... 3 (G Style)
Weight generation scheme         WeightScheme... Becke
Basis function cutoff            BFCut       ...    1.0000e-11
Integration weight cutoff        WCut        ...    1.0000e-14
Grids for H and He will be reduced by one unit

# of grid points (after initial pruning)     ...  41338 (   0.0 sec)
# of grid points (after weights+screening)   ...  37381 (   0.3 sec)
nearest neighbour list constructed           ...    0.0 sec
Grid point re-assignment to atoms done       ...    0.0 sec
Grid point division into batches done        ...    0.1 sec
Reduced shell lists constructed in    0.3 sec

Total number of grid points                  ...    37381
Total number of batches                      ...      591
Average number of points per batch           ...       63
Average number of grid points per atom       ...     1967
Average number of shells per batch           ...   104.41 (83.53%)
Average number of basis functions per batch  ...   254.84 (88.18%)
Average number of large shells per batch     ...    86.99 (83.31%)
Average number of large basis fcns per batch ...   211.65 (83.05%)
Maximum spatial batch extension              ...   2.48,  2.65,  2.70 au
Average spatial batch extension              ...   0.15,  0.15,  0.16 au

Time for grid setup =    1.160 sec

--------------
SCF ITERATIONS
--------------
ITER       Energy         Delta-E        Max-DP      RMS-DP      [F,P]     Damp
               ***  Starting incremental Fock matrix formation  ***
                      *** Initiating the SOSCF procedure ***
                      *** Re-Reading the Fockian *** 
                      *** Removing any level shift *** 
ITER      Energy       Delta-E        Grad      Rot      Max-DP    RMS-DP
  0   -290.10856657 -290.1085665671  0.000142  0.000142  0.000293  0.000008
               *** Restarting incremental Fock matrix formation ***
  1   -290.10856889  -0.0000023200  0.000037  0.000093  0.000110  0.000003
  2   -290.10856911  -0.0000002254  0.000008  0.000026  0.000035  0.000001
[...]
     18      -0.001101  -0.031555  -0.019216   0.000152  -0.000142  -0.000174
     19       0.010725  -0.007672  -0.025264  -0.000174  -0.000347   0.001321
     20      -0.004114  -0.006673  -0.061116   0.000338  -0.000246  -0.000461
     21      -0.054424  -0.145104   0.019467  -0.124609  -0.000477   0.001101
     22      -0.020844  -0.052409   0.003743   0.649779   0.001850  -0.006350
     23      -0.054771  -0.145427  -0.017115  -0.173358  -0.000587   0.001841
     24      -0.024024  -0.115954   0.002543  -0.293220   0.000300  -0.004806
     25       0.062094   0.160551  -0.007967  -0.385293   0.000073  -0.005597
     26      -0.050438  -0.096452   0.011159  -0.375427   0.000083  -0.005988
     27       0.067141   0.129399  -0.000442  -0.135591  -0.000214  -0.000704
     28      -0.005149  -0.035786  -0.026603  -0.058725  -0.000164  -0.000045
     29       0.028666   0.055828  -0.003789   0.363479   0.000621   0.002147
     30      -0.043074  -0.215835   0.014475  -0.001538   0.004194  -0.000576
     31      -0.063800  -0.317497   0.019648   0.001414   0.001196   0.000413
     32       0.057898   0.260852  -0.026872   0.002294  -0.000428   0.000358
     33       0.064685   0.313671  -0.025046   0.003051   0.000921  -0.000001
     34      -0.064339  -0.358280   0.031326   0.001580   0.003194  -0.000527
     35      -0.020563  -0.096414   0.006846  -0.002643  -0.001175   0.000203
     36       0.039934   0.144466  -0.011274   0.001478  -0.000143   0.001213
     37       0.029487   0.029801   0.009280  -0.000562   0.001519  -0.001869
     38      -0.012274  -0.021640  -0.005464  -0.000899   0.005790  -0.002086
     39      -0.309379   0.363099  -0.024502  -0.000050  -0.125085  -0.033483
     40       0.208489  -0.145765   0.014963  -0.000130  -0.372974  -0.085189
     41      -0.104224   0.003806  -0.004973  -0.000288  -0.198199  -0.043514
     42      -0.206745   0.201301  -0.011344   0.001571  -0.651717   0.009547
     43      -0.265139   0.256352  -0.019361  -0.001109   0.607106  -0.005702
     44      -0.202938   0.157050  -0.015344  -0.000183  -0.030063  -0.000104
     45      -0.441305   0.054250  -0.040553   0.000871   0.023913  -0.279645
     46      -0.114743   0.024177  -0.012541  -0.001689  -0.067532   0.707777
     47       0.341362  -0.008613   0.025426   0.000077   0.003161  -0.048769
     48       0.037001   0.009587   0.019749  -0.000542   0.027356   0.458724
     49      -0.548870   0.048775  -0.037964   0.000278  -0.003461  -0.102090
     50       0.102526   0.005589   0.011434   0.000510  -0.021515  -0.426794
     51       0.033348   0.136440  -0.115088   0.000459  -0.000335   0.000038
     52      -0.015106   0.143785   0.539052   0.001863   0.000866  -0.006789
     53      -0.055473  -0.065505   0.435770  -0.005901  -0.000029   0.005763
     54      -0.005029   0.065441   0.420653   0.000467  -0.000211   0.002962
     55       0.024468  -0.008402  -0.127385   0.000551   0.001965  -0.004920
     56      -0.031698   0.078573   0.544976  -0.000805   0.002147  -0.003936
                 48         49         50         51         52         53    
      0      -0.020023  -0.000660  -0.000625   0.012721   0.000083   0.000234
      1      -0.089186  -0.002373  -0.000723   0.014227   0.000422   0.000319
      2      -0.018089   0.004755   0.004242  -0.088754  -0.000410  -0.001152
      3      -0.000242   0.002099   0.000018   0.000008   0.000570   0.001375
      4      -0.001186  -0.001327  -0.000127   0.000323   0.000295  -0.000560
      5      -0.000112   0.002707   0.000436  -0.001331   0.000058   0.001635
      6      -0.000170  -0.023957  -0.001397  -0.002716   0.000355  -0.011616
      7      -0.000517   0.063752   0.003724   0.003537   0.000212   0.000092
      8      -0.000238   0.000597  -0.000146   0.001355  -0.000351   0.010017
      9       0.000790  -0.001486   0.001186  -0.000351   0.000541   0.027757
     10       0.000038  -0.001804  -0.002501   0.000366  -0.000635  -0.035303
     11       0.000143  -0.001393  -0.005074   0.001074  -0.001915  -0.073830
     12      -0.000068  -0.000106  -0.000600   0.000011  -0.005903  -0.001555
     13       0.000370  -0.005510   0.081975   0.003639   0.024395  -0.005993
     14       0.000110  -0.001924   0.031939   0.001387   0.006882  -0.001537
     15      -0.000399  -0.000852   0.019220   0.001057  -0.062625  -0.000126
     16      -0.000447   0.000476  -0.010098  -0.000715   0.057736  -0.000768
     17       0.000625   0.000794  -0.014751  -0.000844   0.037802   0.000826
     18       0.000281   0.000117  -0.000812  -0.000673   0.001342   0.000014
     19       0.000109   0.000157   0.000186   0.000082  -0.001828   0.000277
     20       0.000248   0.000408  -0.000218   0.000386  -0.000449   0.000509
     21      -0.133088  -0.005106  -0.002214   0.047851   0.001185  -0.000119
     22       0.638208   0.025223   0.010762  -0.233082  -0.004223  -0.003987
     23      -0.183281  -0.006081  -0.002150   0.048352   0.001163   0.000817
     24       0.355510  -0.005262  -0.006831   0.148259  -0.000716  -0.000042
     25       0.441410  -0.005193  -0.008655   0.190917  -0.000618   0.001104
     26       0.455512  -0.003972  -0.007685   0.170365  -0.000577   0.000903
     27       0.015840   0.017782   0.016032  -0.337507  -0.001292  -0.005389
     28      -0.012862   0.006481   0.006279  -0.129828  -0.000615  -0.001710
     29      -0.055689  -0.045382  -0.040260   0.841756   0.003616   0.011149
     30      -0.009391   0.594544   0.034454   0.041474  -0.000888   0.055085
     31       0.008448  -0.464665  -0.028519  -0.033669  -0.000540  -0.039202
     32       0.005163  -0.366361  -0.022031  -0.025711   0.000159  -0.030339
     33       0.004353  -0.319147  -0.019839  -0.009822  -0.003865   0.075052
     34       0.004229  -0.248187  -0.016586  -0.008065  -0.004348   0.062968
     35      -0.005923   0.348270   0.022041   0.011829   0.004477  -0.085594
     36      -0.000283  -0.001981  -0.022568   0.004669  -0.006109  -0.320942
     37       0.001011  -0.002817   0.029434  -0.005475   0.008522   0.403738
     38       0.002389  -0.001187   0.059447  -0.010230   0.017559   0.835849
     39      -0.000249   0.017921  -0.276836  -0.012008  -0.066047   0.023246
     40      -0.001475   0.043770  -0.717123  -0.031527  -0.171325   0.054215
     41      -0.000969   0.024728  -0.394639  -0.017098  -0.095205   0.027620
     42       0.001648  -0.015310   0.296615   0.012988   0.134436  -0.020148
     43      -0.001714   0.018089  -0.258794  -0.011286  -0.119727   0.016022
     44       0.000234  -0.002619   0.019468   0.001019   0.011083  -0.000918
     45      -0.002248   0.000958  -0.033670  -0.002254   0.224058  -0.003018
     46       0.006491  -0.003129   0.087335   0.005670  -0.582792   0.007588
     47      -0.000497   0.000335  -0.007317  -0.000487   0.053382  -0.001069
     48       0.007582   0.010285  -0.189326  -0.011041   0.516233   0.003837
     49      -0.001386  -0.001967   0.038005   0.002127  -0.100827  -0.000772
     50      -0.007014  -0.010159   0.180561   0.010732  -0.494839  -0.003647
     51      -0.001939  -0.000732   0.000243  -0.001322  -0.003252   0.001094
     52      -0.000800  -0.000631  -0.000744  -0.000790   0.003823  -0.000930
     53      -0.004666  -0.001741   0.000500   0.002255  -0.004628   0.001175
     54      -0.001989   0.001882   0.003100   0.000212  -0.014274  -0.000317
     55       0.000386  -0.003231  -0.004883  -0.000851   0.015914   0.000122
     56       0.000562  -0.007469  -0.003269  -0.000127   0.008803   0.000065
                  54         55         56    
      0       0.000359   0.000049   0.000247
      1       0.000370  -0.000403  -0.000521
      2      -0.001705   0.000354   0.000214
      3       0.000432   0.000317  -0.000109
      4       0.000034   0.000170   0.000329
      5       0.000022  -0.001096  -0.000066
      6       0.072049  -0.000796   0.000366
      7       0.010750   0.000464  -0.000478
      8      -0.064814   0.000595   0.000060
      9       0.004024   0.000136  -0.000309
     10      -0.006050   0.000064   0.000099
     11      -0.011297   0.000633   0.000104
     12      -0.000051   0.000129   0.000238
     13      -0.001473   0.000243  -0.000040
     14      -0.000058   0.000041   0.000151
     15       0.000287   0.000561  -0.000851
     16      -0.000428  -0.000958   0.001540
     17      -0.000126  -0.000458   0.000282
     18      -0.000087  -0.008487  -0.050499
     19      -0.000558  -0.030839   0.060980
     20       0.000284  -0.049652  -0.020162
     21      -0.000304   0.000644   0.000569
     22      -0.003220   0.002813   0.005189
     23       0.001100  -0.000436  -0.001125
     24       0.001760   0.000423   0.000506
     25       0.002982  -0.000824  -0.000451
     26       0.002591  -0.000465   0.000389
     27      -0.008401  -0.001826  -0.001088
     28      -0.002328   0.000331   0.000335
     29       0.017246   0.000343  -0.000082
     30      -0.361967   0.004621  -0.001811
     31       0.294991  -0.002704   0.000881
     32       0.220276  -0.004731   0.002452
     33      -0.489594   0.000453   0.000423
     34      -0.408225   0.000549  -0.000657
     35       0.541783   0.001015  -0.000649
     36      -0.049572   0.001496   0.000160
     37       0.064888  -0.000748  -0.000654
     38       0.128534  -0.000166  -0.000657
     39       0.003056   0.000015  -0.000120
     40       0.009144  -0.000166   0.000409
     41       0.004211   0.000799   0.000284
     42      -0.008330   0.000591  -0.000220
     43       0.004750  -0.000775   0.000124
     44       0.000155   0.000141   0.000284
     45      -0.001403   0.000364   0.006489
     46       0.004182   0.011090  -0.019052
     47      -0.000592   0.002052   0.002174
     48      -0.002764  -0.006826   0.006271
     49       0.000543   0.002815  -0.001760
     50       0.002832   0.006603  -0.005628
     51       0.000885   0.379499   0.510943
     52      -0.000391  -0.267518  -0.342245
     53       0.002455   0.369877   0.519340
     54      -0.000836  -0.266234   0.184586
     55       0.002266   0.688683  -0.500544
     56       0.004631   0.314090  -0.245496


-----------
IR SPECTRUM
-----------

 Mode    freq (cm**-1)   T**2         TX         TY         TZ
-------------------------------------------------------------------
   6:       115.57    1.304624  (  0.706691  -0.774192   0.453695)
   7:       202.35    0.518113  (  0.108575  -0.703069   0.109630)
   8:       225.39    0.097548  ( -0.169816  -0.242987  -0.098324)
   9:       325.41    3.709177  ( -1.520845  -0.259592   1.152744)
  10:       378.80    3.209001  ( -0.592440   1.628973  -0.452174)
  11:       433.97    1.604610  ( -0.224363  -0.797312   0.958418)
  12:       580.07    2.951414  (  1.236522   0.333352   1.145121)
  13:       605.72    1.126813  ( -0.496371   0.781152   0.519837)
  14:       733.38    0.629184  ( -0.103389   0.549768  -0.562361)
  15:       827.23    6.447589  ( -1.901093   1.236359  -1.142300)
  16:       844.93    1.411366  ( -0.430068  -0.508052  -0.984018)
  17:       866.39    2.544185  ( -0.774517   0.802563   1.140263)
  18:       877.67    3.212904  ( -1.771826   0.210782   0.170616)
  19:       925.03    1.581434  (  0.077136   1.071248  -0.654149)
  20:       941.05    2.877187  ( -0.851159  -0.949671  -1.118410)
  21:       960.25    1.473892  ( -0.716397   0.320816  -0.926145)
  22:       971.46    4.189855  ( -0.295738   1.630973  -1.200967)
  23:      1034.38   12.626505  (  3.137836   0.496728   1.591777)
  24:      1070.17    7.100840  ( -1.126554  -0.228173  -2.404091)
  25:      1086.71    4.569618  ( -1.379198  -0.426436   1.576573)
  26:      1098.82    0.269973  (  0.334322  -0.089557   0.387533)
  27:      1117.97    2.568318  ( -0.600099   0.330659   1.448746)
  28:      1152.73    1.641634  ( -0.168111   1.260799   0.154141)
  29:      1196.73    2.065136  ( -0.976186  -1.010871   0.300560)
  30:      1244.61   22.518417  (  3.170284   2.465530  -2.527624)
  31:      1254.54    3.738686  (  0.959472  -0.984987  -1.359375)
  32:      1279.10    8.512347  (  1.587189   1.784821  -1.675587)
  33:      1316.25    5.625510  ( -1.715925  -0.791322   1.433499)
  34:      1345.10    6.926080  (  0.546322   0.886604  -2.416929)
  35:      1365.25   41.826236  (  5.348732   2.066556  -2.991094)
  36:      1393.86    0.421108  ( -0.089161  -0.329963  -0.551618)
  37:      1418.33    4.098578  ( -0.475662   1.877694   0.588717)
  38:      1444.85   11.477233  (  2.538785   2.059112  -0.889866)
  39:      1479.18    9.957948  ( -0.239040  -2.209398  -2.240395)
  40:      1485.06    6.936660  ( -0.065549  -2.125294   1.554185)
  41:      1491.16   10.357177  (  0.830362  -1.654722   2.632408)
  42:      1503.73    5.484899  ( -0.789545  -2.164289   0.421156)
  43:      1508.21   19.053014  (  4.141496  -1.376411  -0.080744)
  44:      1649.01   59.477045  (  0.825147   2.526363   7.239729)
  45:      3050.18    5.459645  (  1.440916  -0.923358   1.590855)
  46:      3091.11    4.875491  (  2.146057  -0.474359   0.211928)
  47:      3107.98    2.352513  ( -0.023230  -0.905537   1.237730)
  48:      3121.44    4.674840  ( -0.480144  -2.086213  -0.303340)
  49:      3139.07    1.786851  ( -0.526202   0.261153   1.200734)
  50:      3147.05    0.370684  ( -0.132919   0.505066  -0.312931)
  51:      3153.04    1.409513  ( -1.033947   0.352593  -0.464915)
  52:      3171.44    0.608753  ( -0.738910   0.107959   0.226074)
  53:      3212.28    0.341714  (  0.180022   0.217173   0.511998)
  54:      3237.28    0.421528  (  0.036172  -0.451064   0.465576)
  55:      3451.91   43.357088  (  1.318653   2.909116   5.758063)
  56:      3510.09   65.921830  (  5.068534  -5.856657   2.435438)

The first frequency considered to be a vibration is 6
The total number of vibrations considered is 51


--------------------------
THERMOCHEMISTRY AT 298.15K
--------------------------

Temperature         ... 298.15 K
Pressure            ... 1.00 atm
Total Mass          ... 98.17 AMU

Throughout the following assumptions are being made:
  (1) The electronic state is orbitally nondegenerate
  (2) There are no thermally accessible electronically excited states
  (3) Hindered rotations indicated by low frequency modes) are not
      treated as such but are treated as vibrations and this may
      case some error
  (4) All equations used are the standard statistical mechanics
      equations for an ideal gas
  (5) All vibrations are strinctly harmonic


------------
INNER ENERGY
------------

The inner energy is: U= E(el) + E(ZPE) + E(vib) + E(rot) + E(trans)
    E(el)   - is the total energy from the electronic structure calculation
              = E(kin-el) + E(nuc-el) + E(el-el) + E(nuc-nuc)
    E(ZPE)  - the the zero temperature vibrational energy from the frequency calculation
    E(vib)  - the the finite temperature correction to E(ZPE) due to population
              of excietd vibrational states
    E(rot)  - is the rotational thermal energy
    E(trans)- is the translational thermal energy

Summary of contributions to the inner energy U:
Electronic energy                ...   -290.10807471 Eh
Zero point energy                ...      0.17802356 Eh     111.71 kcal/mol
Thermal vibrational correction   ...      0.00393559 Eh       2.47 kcal/mol
Thermal rotational correction    ...      0.00141627 Eh       0.89 kcal/mol
Thermal translational correction ...      0.00141627 Eh       0.89 kcal/mol
-----------------------------------------------------------------------
Total thermal energy                   -289.92328302 Eh


Summary of corrections to the electronic energy:
(perhaps to be used in another calculation)
Total thermal correction                  0.00676813 Eh       4.25 kcal/mol
Non-thermal (ZPE) correction              0.17802356 Eh     111.71 kcal/mol
-----------------------------------------------------------------------
Total correction                          0.18479169 Eh     115.96 kcal/mol


--------
ENTHALPY
--------

The enthalpy is H = U + kB*T
                kB is Boltzmann's constant
Total free energy                 ...   -289.92328302 Eh 
Thermal Enthalpy correction       ...      0.00094421 Eh       0.59 kcal/mol
-----------------------------------------------------------------------
Total Enthalpy                    ...   -289.92233881 Eh


-------
ENTROPY
-------

The entropy contributions are T*S = T*(S(el)+S(vib)+S(rot)+S(trans)
     S(el)   - electronic entropy
     S(vib)  - vibrational entropy
     S(rot)  - rotational entropy
     S(trans)- translational entropy
The entropies will be listed as mutliplied by the temperature to get
units of energy

Electronic entropy                ...      0.00000000 Eh      0.00 kcal/mol
Vibrational entropy               ...      0.00637250 Eh      4.00 kcal/mol
Rotational entropy                ...      0.01181358 Eh      7.41 kcal/mol
Translational entropy             ...      0.01884507 Eh     11.83 kcal/mol
-----------------------------------------------------------------------
Final entropy term                ...      0.03703116 Eh     23.24 kcal/mol


CAUTION: The rotational entropy is not quite correctly treated here
         because it includes a symmetry number that is not yet correctly
         implemented in ORCA!
For a nonlinear molecule the correct rotational entropy is:
    S(rot) = R*(ln(qrot/sn)+1.5)
    R    = 8.31441 J/mol/K = 1.987191683e-3 kcal/mol/K
    qrot = 181789.2468132
    sn is the rotational symmetry number. We have assumed 3 here
       if it is different for your molecule then you should correct
       the printed rotational entropy by manually evaluating the equation
       as given above

For convenience we print out the resulting values for sn=1 - 12:
 sn= 1  qrot/sn=  181789.2468 T*S(rot)=     8.06 kcal/mol T*S(tot)=    23.89 kcal/mol
 sn= 2  qrot/sn=   90894.6234 T*S(rot)=     7.65 kcal/mol T*S(tot)=    23.48 kcal/mol
 sn= 3  qrot/sn=   60596.4156 T*S(rot)=     7.41 kcal/mol T*S(tot)=    23.24 kcal/mol
 sn= 4  qrot/sn=   45447.3117 T*S(rot)=     7.24 kcal/mol T*S(tot)=    23.07 kcal/mol
 sn= 5  qrot/sn=   36357.8494 T*S(rot)=     7.11 kcal/mol T*S(tot)=    22.93 kcal/mol
 sn= 6  qrot/sn=   30298.2078 T*S(rot)=     7.00 kcal/mol T*S(tot)=    22.83 kcal/mol
 sn= 7  qrot/sn=   25969.8924 T*S(rot)=     6.91 kcal/mol T*S(tot)=    22.74 kcal/mol
 sn= 8  qrot/sn=   22723.6559 T*S(rot)=     6.83 kcal/mol T*S(tot)=    22.66 kcal/mol
 sn= 9  qrot/sn=   20198.8052 T*S(rot)=     6.76 kcal/mol T*S(tot)=    22.59 kcal/mol
 sn=10  qrot/sn=   18178.9247 T*S(rot)=     6.70 kcal/mol T*S(tot)=    22.52 kcal/mol
 sn=11  qrot/sn=   16526.2952 T*S(rot)=     6.64 kcal/mol T*S(tot)=    22.47 kcal/mol
 sn=12  qrot/sn=   15149.1039 T*S(rot)=     6.59 kcal/mol T*S(tot)=    22.42 kcal/mol


-------------------
GIBBS FREE ENTHALPY
-------------------

The Gibbs free enthalpy is G = H - T*S

Total enthalpy                    ...   -289.92233881 Eh 
Total entropy correction          ...     -0.03703116 Eh    -23.24 kcal/mol
-----------------------------------------------------------------------
Final Gibbs free enthalpy         ...   -289.95936996 Eh

For completeness - the Gibbs free enthalpy minus the electronic energy
G-E(el)                           ...      0.14870474 Eh     93.31 kcal/mol


Timings for individual modules:

Sum of individual times         ...     3095.089 sec (=  51.585 min)
GTO integral calculation        ...        6.633 sec (=   0.111 min)   0.2 %
SCF iterations                  ...      281.885 sec (=   4.698 min)   9.1 %
SCF Gradient evaluation         ...      137.960 sec (=   2.299 min)   4.5 %
Geometry relaxation             ...        0.199 sec (=   0.003 min)   0.0 %
Analytical frequency calculation...     2668.412 sec (=  44.474 min)  86.2 %
                             ****ORCA TERMINATED NORMALLY****
TOTAL RUN TIME: 0 days 0 hours 51 minutes 36 seconds 856 msec
