
                                 *****************
                                 * O   R   C   A *
                                 *****************

           --- An Ab Initio, DFT and Semiempirical electronic structure package ---

                  #######################################################
                  #                        -***-                        #
                  #  Department of molecular theory and spectroscopy    #
                  #              Directorship: Frank Neese              #
                  # Max Planck Institute for Chemical Energy Conversion #
                  #                  D-45470 Muelheim/Ruhr              #
                  #                       Germany                       #
                  #                                                     #
                  #                  All rights reserved                #
                  #                        -***-                        #
                  #######################################################


                         Program Version 3.0.3 - RELEASE   -


 With contributions from (in alphabetic order):
   Ute Becker             : Parallelization
   Dmytro Bykov           : SCF Hessian
   Dmitry Ganyushin       : Spin-Orbit,Spin-Spin,Magnetic field MRCI
   Andreas Hansen         : Spin unrestricted coupled pair/coupled cluster methods
   Dimitrios Liakos       : Extrapolation schemes; parallel MDCI
   Robert Izsak           : Overlap fitted RIJCOSX, COSX-SCS-MP3
   Christian Kollmar      : KDIIS, OOCD, Brueckner-CCSD(T), CCSD density
   Simone Kossmann        : Meta GGA functionals, TD-DFT gradient, OOMP2, MP2 Hessian
   Taras Petrenko         : DFT Hessian,TD-DFT gradient, ASA and ECA modules, normal mode analysis, Resonance Raman, ABS, FL, XAS/XES, NRVS
   Christoph Reimann      : Effective Core Potentials
   Michael Roemelt        : Restricted open shell CIS
   Christoph Riplinger    : Improved optimizer, TS searches, QM/MM, DLPNO-CCSD
   Barbara Sandhoefer     : DKH picture change effects
   Igor Schapiro          : Molecular dynamics
   Kantharuban Sivalingam : CASSCF convergence, NEVPT2
   Boris Wezisla          : Elementary symmetry handling
   Frank Wennmohs         : Technical directorship


 We gratefully acknowledge several colleagues who have allowed us to
 interface, adapt or use parts of their codes:
   Stefan Grimme, W. Hujo, H. Kruse, T. Risthaus : VdW corrections, initial TS optimization,
                                                   DFT functionals, gCP
   Ed Valeev                                     : LibInt (2-el integral package), F12 methods
   Garnet Chan, S. Sharma, R. Olivares           : DMRG
   Ulf Ekstrom                                   : XCFun DFT Library
   Mihaly Kallay                                 : mrcc  (arbitrary order and MRCC methods)
   Andreas Klamt, Michael Diedenhofen            : otool_cosmo (COSMO solvation model)
   Frank Weinhold                                : gennbo (NPA and NBO analysis)
   Christopher J. Cramer and Donald G. Truhlar   : smd solvation model


 Your calculation uses the libint2 library for the computation of 2-el integrals
 For citations please refer to: http://libint.valeyev.net

 This ORCA versions uses:
   CBLAS   interface :  Fast vector & matrix operations
   LAPACKE interface :  Fast linear algebra routines
   SCALAPACK package :  Parallel linear algebra routines


Your calculation utilizes the basis: Ahlrichs-TZV
Cite in your paper:
H - Kr: A. Schaefer, H. Horn and R. Ahlrichs, J. Chem. Phys. 97, 2571 (1992).

The def2-TZV basis will be loaded
Cite in your paper:
 	F. Weigend, R. Ahlrichs, Phys. Chem. Chem. Phys. 2005, 7, 3297.

================================================================================
                                        WARNINGS
                       Please study these warnings very carefully!
================================================================================
Now building the actual basis set
WARNING: Geometry optimizations can change the point-group symmetry!

WARNING: Geometry Optimization
  ===> : Switching off AutoStart
         For restart on a previous wavefunction, please use MOREAD


INFO   : the flag for use of LIBINT has been found!

================================================================================
                                       INPUT FILE
================================================================================
NAME = 1627_+.inp
|  1> ! NORI PBE0 def2-TZVP UseSym TightOPT Freq TightSCF Grid3 FinalGrid5 XYZFile
|  2> % pal
|  3>     nprocs 8
|  4> end
|  5> %method
|  6>     SymThresh 5.0e-2
|  7> end
|  8> % geom 
|  9>     MaxIter 10
| 10> end 
| 11> % maxcore 2000
| 12> % output
| 13>     printlevel mini
| 14>     print[ P_Basis ] 0
| 15>     print[ P_SCFInfo ] 1
| 16>     print[ P_SCFIterInfo ] 1
| 17>     print[ P_OrbEn ] 0
| 18>     print[ P_Cartesian ] 0
| 19> end
| 20> % elprop
| 21>     Dipole false
| 22> end
| 23> *xyz 1 1
| 24>  C        0.9501467036    -0.1703935952    -0.0430078886 
| 25>  C        2.4359171671     0.0009915117    -0.0171242379 
| 26>  C        3.3683373916    -0.5901185317    -1.1015298720 
| 27>  N        4.4270831665    -0.4107834380    -0.0380411487 
| 28>  C        3.3534036385    -0.7665103215     0.9645225003 
| 29>  C        4.5257160410     1.0823790904     0.0904013495 
| 30>  C        3.0212572318     1.4184806219     0.1087575832 
| 31>  H        0.5147080317     0.3770495709    -0.8816000680 
| 32>  H        0.5015865249     0.2198917561     0.8730645680 
| 33>  H        0.6673131571    -1.2201508650    -0.1384924090 
| 34>  H        3.5647992588    -0.0328837349    -2.0168391408 
| 35>  H        3.2164930556    -1.6507280278    -1.2943433416 
| 36>  H        5.3044864197    -0.9268451180    -0.0758756816 
| 37>  H        3.1996441492    -1.8446041053     0.9726325567 
| 38>  H        3.5365325559    -0.3726145619     1.9638999294 
| 39>  H        5.0709421198     1.4766002865    -0.7656311138 
| 40>  H        5.0584308180     1.3245027249     1.0084992493 
| 41>  H        2.7158051248     1.9037996542     1.0359518095 
| 42>  H        2.7288074444     2.0560970827    -0.7257546440 
| 43> *
| 44> 
| 45>                          ****END OF INPUT****
================================================================================
---------------------
ASYMMETRIC UNIT IN Cs
---------------------
  #  AT     MASS              COORDS (A.U.)             BAS
   0 C   12.0110  -3.73504932   1.93435296   0.00000000   0
   1 C   12.0110  -1.23120229   0.62240434   0.00000000   0
   2 C   12.0110   0.86211622   1.19731314   1.95928913   0
   3 N   14.0070   2.56063512  -0.00000000   0.00000000   0
   5 C   12.0110   1.71909193  -2.71058502   0.00000000   0
   6 C   12.0110  -1.16290064  -2.28460502   0.00000000   0
   7 H    1.0080  -4.83355319   1.40394510   1.66458671   0
   9 H    1.0080  -3.51977364   3.98547725   0.00000000   0
  10 H    1.0080   0.87342387   0.22650934   3.77502053   0
  11 H    1.0080   1.31987821   3.19427296   2.14985964   0
  12 H    1.0080   4.45907130   0.31817073   0.00000000   0
  15 H    1.0080   2.45327929  -3.63971123   1.68250067   0
  17 H    1.0080  -2.07203097  -3.07584832  -1.67082411   0


                       *****************************
                       * Geometry Optimization Run *
                       *****************************

Geometry optimization settings:
Update method            Update   .... BFGS
Choice of coordinates    CoordSys .... Redundant Internals
Initial Hessian          InHess   .... Almoef's Model

Convergence Tolerances:
Energy Change            TolE     ....  1.0000e-06 Eh
Max. Gradient            TolMAXG  ....  1.0000e-04 Eh/bohr
RMS Gradient             TolRMSG  ....  3.0000e-05 Eh/bohr
Max. Displacement        TolMAXD  ....  1.0000e-03 bohr
RMS Displacement         TolRMSD  ....  6.0000e-04 bohr

------------------------------------------------------------------------------
                        ORCA OPTIMIZATION COORDINATE SETUP
------------------------------------------------------------------------------

The optimization will be done in new redundant internal coordinates
Making redundant internal coordinates   ...  (new redundants) done
Evaluating the initial hessian          ...  (Almloef) done
Evaluating the coordinates              ...  done
Calculating the B-matrix                .... done
Calculating the G-matrix                .... done
Diagonalizing the G-matrix              .... done
The first mode is                       ....   83
The number of degrees of freedom        ....   51

    -----------------------------------------------------------------
                    Redundant Internal Coordinates


    -----------------------------------------------------------------
         Definition                    Initial Value    Approx d2E/dq
    -----------------------------------------------------------------
      1. B(C   1,C   0)                  1.4958         0.423514   
      2. B(C   2,C   1)                  1.5475         0.350374   
      3. B(N   3,C   2)                  1.5114         0.358271   
      4. B(C   4,N   3)                  1.5114         0.358271   
      5. B(C   4,C   1)                  1.5475         0.350374   
      6. B(C   5,N   3)                  1.5019         0.370951   
      7. B(C   6,C   1)                  1.5387         0.361761   
      8. B(C   6,C   5)                  1.5417         0.357919   
      9. B(H   7,C   0)                  1.0921         0.357375   
     10. B(H   8,C   0)                  1.0921         0.357375   
     11. B(H   9,C   0)                  1.0914         0.358292   
     12. B(H  10,C   2)                  1.0896         0.360664   
     13. B(H  11,C   2)                  1.0888         0.361645   
     14. B(H  12,N   3)                  1.0186         0.419220   
     15. B(H  13,C   4)                  1.0888         0.361645   
     16. B(H  14,C   4)                  1.0896         0.360664   
     17. B(H  15,C   5)                  1.0888         0.361747   
     18. B(H  16,C   5)                  1.0888         0.361747   
     19. B(H  17,C   6)                  1.0902         0.359853   
     20. B(H  18,C   6)                  1.0902         0.359853   
     21. A(H   7,C   0,H   9)          108.1300         0.290263   
     22. A(C   1,C   0,H   9)          111.6618         0.330822   
     23. A(H   8,C   0,H   9)          108.1300         0.290263   
     24. A(C   1,C   0,H   7)          110.6223         0.330681   
     25. A(C   1,C   0,H   8)          110.6223         0.330681   
     26. A(H   7,C   0,H   8)          107.5301         0.290147   
     27. A(C   0,C   1,C   4)          122.8764         0.367188   
     28. A(C   2,C   1,C   6)          100.3541         0.357439   
     29. A(C   4,C   1,C   6)          100.3541         0.357439   
     30. A(C   2,C   1,C   4)           84.1359         0.355503   
     31. A(C   0,C   1,C   2)          122.8764         0.367188   
     32. A(C   0,C   1,C   6)          118.9993         0.369209   
     33. A(H  10,C   2,H  11)          112.0058         0.291107   
     34. A(N   3,C   2,H  11)          109.7605         0.320408   
     35. A(C   1,C   2,H  11)          114.3379         0.321153   
     36. A(N   3,C   2,H  10)          113.8303         0.320265   
     37. A(C   1,C   2,H  10)          120.1382         0.321011   
     38. A(C   1,C   2,N   3)           83.3194         0.354647   
     39. A(C   2,N   3,C   5)          102.9458         0.355886   
     40. A(C   5,N   3,H  12)          116.7619         0.327357   
     41. A(C   4,N   3,H  12)          121.1463         0.325488   
     42. A(C   2,N   3,H  12)          121.1463         0.325488   
     43. A(C   2,N   3,C   4)           86.6286         0.353794   
     44. A(C   4,N   3,C   5)          102.9458         0.355886   
     45. A(C   1,C   4,H  14)          120.1382         0.321011   
     46. A(N   3,C   4,H  13)          109.7605         0.320408   
     47. A(C   1,C   4,H  13)          114.3379         0.321153   
     48. A(C   1,C   4,N   3)           83.3194         0.354647   
     49. A(H  13,C   4,H  14)          112.0058         0.291107   
     50. A(N   3,C   4,H  14)          113.8303         0.320265   
     51. A(N   3,C   5,C   6)           98.8399         0.358040   
     52. A(H  15,C   5,H  16)          109.7221         0.291257   
     53. A(C   6,C   5,H  16)          114.7739         0.322290   
     54. A(N   3,C   5,H  16)          108.9945         0.322251   
     55. A(C   6,C   5,H  15)          114.7739         0.322290   
     56. A(N   3,C   5,H  15)          108.9945         0.322251   
     57. A(C   1,C   6,C   5)           99.7538         0.358737   
     58. A(H  17,C   6,H  18)          108.3912         0.290777   
     59. A(C   5,C   6,H  18)          112.3579         0.322013   
     60. A(C   1,C   6,H  18)          111.9377         0.322577   
     61. A(C   5,C   6,H  17)          112.3579         0.322013   
     62. A(C   1,C   6,H  17)          111.9377         0.322577   
     63. D(C   6,C   1,C   0,H   8)    -59.5219         0.014187   
     64. D(C   6,C   1,C   0,H   7)     59.5219         0.014187   
     65. D(C   6,C   1,C   0,H   9)    180.0000         0.014187   
     66. D(C   2,C   1,C   0,H   7)    -67.5593         0.014187   
     67. D(C   4,C   1,C   0,H   7)   -173.3968         0.014187   
     68. D(C   4,C   1,C   0,H   8)     67.5593         0.014187   
     69. D(C   2,C   1,C   0,H   8)    173.3968         0.014187   
     70. D(C   4,C   1,C   0,H   9)    -52.9188         0.014187   
     71. D(C   2,C   1,C   0,H   9)     52.9188         0.014187   
     72. D(N   3,C   2,C   1,C   4)    -34.4425         0.009889   
     73. D(N   3,C   2,C   1,C   6)     65.0490         0.009889   
     74. D(H  11,C   2,C   1,C   6)    173.7496         0.009889   
     75. D(H  10,C   2,C   1,C   6)    -48.6779         0.009889   
     76. D(H  10,C   2,C   1,C   4)   -148.1694         0.009889   
     77. D(N   3,C   2,C   1,C   0)   -160.1299         0.009889   
     78. D(H  11,C   2,C   1,C   4)     74.2580         0.009889   
     79. D(H  11,C   2,C   1,C   0)    -51.4293         0.009889   
     80. D(H  10,C   2,C   1,C   0)     86.1433         0.009889   
     81. D(H  12,N   3,C   2,C   1)    159.9784         0.011805   
     82. D(C   5,N   3,C   2,H  11)    179.2215         0.011805   
     83. D(H  12,N   3,C   2,H  10)    -79.9621         0.011805   
     84. D(C   5,N   3,C   2,H  10)     52.7854         0.011805   
     85. D(H  12,N   3,C   2,H  11)     46.4740         0.011805   
     86. D(C   4,N   3,C   2,C   1)     35.2430         0.011805   
     87. D(C   5,N   3,C   2,C   1)    -67.2741         0.011805   
     88. D(C   4,N   3,C   2,H  10)    155.3025         0.011805   
     89. D(C   4,N   3,C   2,H  11)    -78.2614         0.011805   
     90. D(N   3,C   4,C   1,C   6)    -65.0490         0.009889   
     91. D(N   3,C   4,C   1,C   2)     34.4425         0.009889   
     92. D(H  13,C   4,C   1,C   0)     51.4293         0.009889   
     93. D(N   3,C   4,C   1,C   0)    160.1299         0.009889   
     94. D(H  14,C   4,N   3,H  12)     79.9621         0.011805   
     95. D(H  14,C   4,N   3,C   5)    -52.7854         0.011805   
     96. D(H  13,C   4,N   3,H  12)    -46.4740         0.011805   
     97. D(H  13,C   4,N   3,C   5)   -179.2215         0.011805   
     98. D(H  13,C   4,N   3,C   2)     78.2614         0.011805   
     99. D(C   1,C   4,N   3,H  12)   -159.9784         0.011805   
    100. D(C   1,C   4,N   3,C   5)     67.2741         0.011805   
    101. D(C   1,C   4,N   3,C   2)    -35.2430         0.011805   
    102. D(H  14,C   4,C   1,C   6)     48.6779         0.009889   
    103. D(H  14,C   4,C   1,C   2)    148.1694         0.009889   
    104. D(H  14,C   4,N   3,C   2)   -155.3025         0.011805   
    105. D(H  14,C   4,C   1,C   0)    -86.1433         0.009889   
    106. D(H  13,C   4,C   1,C   6)   -173.7496         0.009889   
    107. D(H  13,C   4,C   1,C   2)    -74.2580         0.009889   
    108. D(H  16,C   5,N   3,H  12)    -59.8656         0.012620   
    109. D(H  16,C   5,N   3,C   4)     75.3943         0.012620   
    110. D(H  16,C   5,N   3,C   2)    164.8745         0.012620   
    111. D(H  15,C   5,N   3,H  12)     59.8656         0.012620   
    112. D(H  15,C   5,N   3,C   4)   -164.8745         0.012620   
    113. D(H  15,C   5,N   3,C   2)    -75.3943         0.012620   
    114. D(C   6,C   5,N   3,H  12)    180.0000         0.012620   
    115. D(C   6,C   5,N   3,C   4)    -44.7401         0.012620   
    116. D(C   6,C   5,N   3,C   2)     44.7401         0.012620   
    117. D(H  18,C   6,C   1,C   2)     76.1046         0.010492   
    118. D(H  18,C   6,C   1,C   0)    -60.9656         0.010492   
    119. D(H  17,C   6,C   1,C   4)    -76.1046         0.010492   
    120. D(H  17,C   6,C   1,C   2)   -161.9643         0.010492   
    121. D(H  17,C   6,C   1,C   0)     60.9656         0.010492   
    122. D(C   5,C   6,C   1,C   4)     42.9298         0.010492   
    123. D(C   5,C   6,C   1,C   2)    -42.9298         0.010492   
    124. D(H  18,C   6,C   1,C   4)    161.9643         0.010492   
    125. D(C   5,C   6,C   1,C   0)    180.0000         0.010492   
    126. D(H  18,C   6,C   5,H  16)    125.5189         0.010286   
    127. D(H  18,C   6,C   5,N   3)   -118.7243         0.010286   
    128. D(H  17,C   6,C   5,H  16)      2.9675         0.010286   
    129. D(H  17,C   6,C   5,H  15)   -125.5189         0.010286   
    130. D(H  17,C   6,C   5,N   3)    118.7243         0.010286   
    131. D(C   1,C   6,C   5,H  16)   -115.7568         0.010286   
    132. D(H  18,C   6,C   5,H  15)     -2.9675         0.010286   
    133. D(C   1,C   6,C   5,H  15)    115.7568         0.010286   
    134. D(C   1,C   6,C   5,N   3)      0.0000         0.010286   
    -----------------------------------------------------------------

Number of atoms                         .... 19
Number of degrees of freedom            .... 134

         *************************************************************
         *                GEOMETRY OPTIMIZATION CYCLE   1            *
         *************************************************************


           ************************************************************
           *        Program running with 8 parallel MPI-processes     *
           *              working on a common directory               *
           ************************************************************
           ************************************************************
           *              Shut down parallel processing               *
           ************************************************************


           ************************************************************
           *        Program running with 8 parallel MPI-processes     *
           *              working on a common directory               *
           ************************************************************
------------
SCF SETTINGS
------------
Hamiltonian:
 Density Functional     Method          .... DFT(GTOs)
 Exchange Functional    Exchange        .... PBE
   PBE kappa parameter  XKappa          ....  0.804000
 Correlation Functional Correlation     .... PBE
 LDA part of GGA corr.  LDAOpt          .... PW91-LDA
 Gradients option       PostSCFGGA      .... off
 Hybrid DFT is turned on
   Fraction HF Exchange ScalHFX         ....  0.250000
   Scaling of DF-GGA-X  ScalDFX         ....  0.750000
   Scaling of DF-GGA-C  ScalDFC         ....  1.000000
   Scaling of DF-LDA-C  ScalLDAC        ....  1.000000
   Perturbative correction              ....  0.000000
   NL short-range parameter             ....  6.900000


General Settings:
 Integral files         IntName         .... 1627_+
 Hartree-Fock type      HFTyp           .... RHF
 Total Charge           Charge          ....    1
 Multiplicity           Mult            ....    1
 Number of Electrons    NEL             ....   54
 Basis Dimension        Dim             ....  289
 Nuclear Repulsion      ENuc            ....    340.3856242688 Eh

 Symmetry handling      UseSym         .... ON
 Point group                           .... Cs
 Used point group                      .... Cs
 Number of irreps                      .... 2
   Irrep   A' has  176 symmetry adapted basis functions (ofs=   0)
   Irrep   A" has  113 symmetry adapted basis functions (ofs= 176)

Convergence Acceleration:
 DIIS                   CNVDIIS         .... on
   Start iteration      DIISMaxIt       ....    12
   Startup error        DIISStart       ....  0.200000
   # of expansion vecs  DIISMaxEq       ....     5
   Bias factor          DIISBfac        ....   1.050
   Max. coefficient     DIISMaxC        ....  10.000
 Newton-Raphson         CNVNR           .... off
 SOSCF                  CNVSOSCF        .... on
   Start iteration      SOSCFMaxIt      ....   150
   Startup grad/error   SOSCFStart      ....  0.003300
 Level Shifting         CNVShift        .... on
   Level shift para.    LevelShift      ....    0.2500
   Turn off err/grad.   ShiftErr        ....    0.0010
 Zerner damping         CNVZerner       .... off
 Static damping         CNVDamp         .... on
   Fraction old density DampFac         ....    0.7000
   Max. Damping (<1)    DampMax         ....    0.9800
   Min. Damping (>=0)   DampMin         ....    0.0000
   Turn off err/grad.   DampErr         ....    0.1000
 Fernandez-Rico         CNVRico         .... off

SCF Procedure:
 Maximum # iterations   MaxIter         ....   125
 SCF integral mode      SCFMode         .... Direct
   Integral package                     .... LIBINT
 Reset frequeny         DirectResetFreq ....    20
 Integral Threshold     Thresh          ....  2.500e-11 Eh
 Primitive CutOff       TCut            ....  2.500e-12 Eh

Convergence Tolerance:
 Convergence Check Mode ConvCheckMode   .... Total+1el-Energy
 Energy Change          TolE            ....  1.000e-08 Eh
 1-El. energy change                    ....  1.000e-05 Eh
 Orbital Gradient       TolG            ....  1.000e-05
 Orbital Rotation angle TolX            ....  1.000e-05
 DIIS Error             TolErr          ....  5.000e-07


Diagonalization of the overlap matrix:
Smallest eigenvalue                        ... 3.662e-05
Time for diagonalization                   ...    0.240 sec
Threshold for overlap eigenvalues          ... 1.000e-08
Number of eigenvalues below threshold      ... 0
Time for construction of square roots      ...    0.020 sec
Producing symmetrization matrix            ... done (   0.021 sec)
Total time needed                          ...    0.281 sec

-------------------
DFT GRID GENERATION
-------------------

General Integration Accuracy     IntAcc      ...  4.340
Radial Grid Type                 RadialGrid  ... Gauss-Chebyshev
Angular Grid (max. acc.)         AngularGrid ... Lebedev-194
Angular grid pruning method      GridPruning ... 3 (G Style)
Weight generation scheme         WeightScheme... Becke
Basis function cutoff            BFCut       ...    1.0000e-11
Integration weight cutoff        WCut        ...    1.0000e-14
Grids for H and He will be reduced by one unit

# of grid points (after initial pruning)     ...  41338 (   0.0 sec)
# of grid points (after weights+screening)   ...  37239 (   0.2 sec)
nearest neighbour list constructed           ...    0.0 sec
Grid point re-assignment to atoms done       ...    0.0 sec
Grid point division into batches done        ...    0.1 sec
Reduced shell lists constructed in    0.3 sec

Total number of grid points                  ...    37239
Total number of batches                      ...      590
Average number of points per batch           ...       63
Average number of grid points per atom       ...     1960
Average number of shells per batch           ...   106.12 (84.90%)
Average number of basis functions per batch  ...   258.65 (89.50%)
Average number of large shells per batch     ...    90.04 (84.85%)
Average number of large basis fcns per batch ...   220.55 (85.27%)
Maximum spatial batch extension              ...   3.03,  2.09,  2.28 au
Average spatial batch extension              ...   0.15,  0.15,  0.16 au

Time for grid setup =    0.579 sec

Loading Hartree-Fock densities                     ... done
Calculating cut-offs                               ... done
Setting up the integral package                    ... done
Initializing the effective Hamiltonian             ... done
Starting the Coulomb interaction                   ... done (   0.0 sec)
Reading the grid                                   ... done
Mapping shells                                     ... done
Starting the XC term evaluation                    ... done (   0.6 sec)
  promolecular density results
     # of electrons  =     54.992680282
     EX              =    -40.858605902
     EC              =     -1.835087470
     EX+EC           =    -42.693693372
done (   0.0 sec)
Diagonalizing the Hamiltonian                      ... done (   0.0 sec)
Back transforming the eigenvectors                 ... done (   0.0 sec)
Now organizing SCF variables                       ... done
The symmetry of the initial guess is 1-A'
Irrep occupations for operator 0
    A' -   19
    A" -    8
--------------
SCF ITERATIONS
--------------
ITER       Energy         Delta-E        Max-DP      RMS-DP      [F,P]     Damp
               ***  Starting incremental Fock matrix formation  ***
  0   -289.9709818928   0.000000000000 0.04574503  0.00108318  0.1759582 0.7000
  1   -290.0226946697  -0.051712776915 0.02183452  0.00052077  0.0683352 0.7000
                               ***Turning on DIIS***
  2   -290.0478891623  -0.025194492573 0.03918946  0.00102127  0.0275578 0.0000
  3   -290.0979888399  -0.050099677635 0.01188397  0.00026520  0.0257277 0.0000
  4   -290.1000498445  -0.002061004543 0.00444630  0.00007189  0.0079000 0.0000
                      *** Initiating the SOSCF procedure ***
                           *** Shutting down DIIS ***
                      *** Re-Reading the Fockian *** 
                      *** Removing any level shift *** 
ITER      Energy       Delta-E        Grad      Rot      Max-DP    RMS-DP
  5   -290.10027736  -0.0002275152  0.000240  0.000240  0.000731  0.000019
               *** Restarting incremental Fock matrix formation ***
  6   -290.10028485  -0.0000074938  0.000220  0.000732  0.001023  0.000024
  7   -290.10026959   0.0000152684  0.000539  0.000688  0.000877  0.000022
  8   -290.10028734  -0.0000177554  0.000073  0.000478  0.000469  0.000011
  9   -290.10028660   0.0000007365  0.000177  0.000268  0.000280  0.000007
 10   -290.10028753  -0.0000009243  0.000013  0.000121  0.000126  0.000003
 11   -290.10028750   0.0000000281  0.000033  0.000078  0.000070  0.000002
 12   -290.10028754  -0.0000000353  0.000005  0.000029  0.000051  0.000001
 13   -290.10028753   0.0000000010  0.000007  0.000025  0.000027  0.000001
                  ***Gradient check signals convergence***
              ***Rediagonalizing the Fockian in SOSCF/NRSCF***

               *****************************************************
               *                     SUCCESS                       *
               *           SCF CONVERGED AFTER  14 CYCLES          *
               *****************************************************

Setting up the final grid:

General Integration Accuracy     IntAcc      ...  5.010
Radial Grid Type                 RadialGrid  ... Gauss-Chebyshev
Angular Grid (max. acc.)         AngularGrid ... Lebedev-434
Angular grid pruning method      GridPruning ... 3 (G Style)
Weight generation scheme         WeightScheme... Becke
Basis function cutoff            BFCut       ...    1.0000e-11
Integration weight cutoff        WCut        ...    1.0000e-14
Grids for H and He will be reduced by one unit

# of grid points (after initial pruning)     ... 155082 (   0.0 sec)
# of grid points (after weights+screening)   ... 138032 (   3.0 sec)
nearest neighbour list constructed           ...    0.0 sec
Grid point re-assignment to atoms done       ...    0.0 sec
Grid point division into batches done        ...    0.8 sec
Reduced shell lists constructed in    1.0 sec

Total number of grid points                  ...   138032
Total number of batches                      ...     2168
Average number of points per batch           ...       63
Average number of grid points per atom       ...     7265
Average number of shells per batch           ...   104.80 (83.84%)
Average number of basis functions per batch  ...   256.60 (88.79%)
Average number of large shells per batch     ...    87.62 (83.61%)
Average number of large basis fcns per batch ...   214.42 (83.56%)
Maximum spatial batch extension              ...   2.69,  1.72,  2.79 au
Average spatial batch extension              ...   0.10,  0.10,  0.10 au

Final grid set up in    6.4 sec
Final integration                            ... done (   1.7 sec)
Change in XC energy                          ...     0.000425364
Integrated number of electrons               ...    54.000013908
Previous integrated no of electrons          ...    53.999851444
Total Energy       :         -290.09986217 Eh           -7894.01857 eV
  Last Energy change         ...   -1.9582e-09  Tolerance :   1.0000e-08
  Last MAX-Density change    ...    2.1846e-05  Tolerance :   1.0000e-07
             **** THE GBW FILE WAS UPDATED (1627_+.gbw) ****
             **** DENSITY FILE WAS UPDATED (1627_+.scfp.tmp) ****
             **** ENERGY FILE WAS UPDATED (1627_+.en.tmp) ****
Total SCF time: 0 days 0 hours 3 min 9 sec 
           ************************************************************
           *              Shut down parallel processing               *
           ************************************************************

-------------------------   --------------------
FINAL SINGLE POINT ENERGY      -290.099862172726
-------------------------   --------------------



           ************************************************************
           *        Program running with 8 parallel MPI-processes     *
           *              working on a common directory               *
           ************************************************************
------------------------------------------------------------------------------
                         ORCA SCF GRADIENT CALCULATION
------------------------------------------------------------------------------

Gradient of the Kohn-Sham DFT energy:
Kohn-Sham wavefunction type      ... RKS
Hartree-Fock exchange scaling    ...    0.250
Number of operators              ...    1
Number of atoms                  ...   19
Basis set dimensions             ...  289
Integral neglect threshold       ... 2.5e-11
Integral primitive cutoff        ... 2.5e-12

Nuclear repulsion gradient       ... done
One Electron Gradient            ... done
Pre-screening matrix             ... done
Starting the two electron gradient:
Two electron gradient done
Exchange-correlation gradient    ... done

------------------
CARTESIAN GRADIENT
------------------

   1   C   :    0.000183480    0.000051825   -0.000000000
   2   C   :   -0.000097500   -0.000083681    0.000000001
   3   C   :    0.000122272    0.000142913    0.000032995
   4   N   :   -0.000240956   -0.000207314    0.000000001
   5   C   :    0.000122270    0.000142916   -0.000032998
   6   C   :   -0.000012764    0.000182615    0.000000001
   7   C   :    0.000355128    0.000227131   -0.000000002
   8   H   :   -0.000071202   -0.000009899    0.000010306
   9   H   :   -0.000071198   -0.000009898   -0.000010307
  10   H   :   -0.000029566   -0.000103613   -0.000000000
  11   H   :   -0.000026189   -0.000056767    0.000072423
  12   H   :    0.000004786   -0.000084610    0.000025409
  13   H   :    0.000056121    0.000043321   -0.000000000
  14   H   :    0.000004785   -0.000084608   -0.000025410
  15   H   :   -0.000026192   -0.000056767   -0.000072420
  16   H   :   -0.000002662    0.000018704    0.000051446
  17   H   :   -0.000002662    0.000018706   -0.000051445
  18   H   :   -0.000133976   -0.000065487   -0.000103054
  19   H   :   -0.000133976   -0.000065487    0.000103054

Norm of the cartesian gradient     ...    0.000755586
RMS gradient                       ...    0.000100080
MAX gradient                       ...    0.000355128

-------
TIMINGS
-------

Total SCF gradient time            ...       53.199 sec

One electron gradient       ....       0.238 sec  (  0.4%)
Prescreening matrices       ....       0.645 sec  (  1.2%)
Two electron gradient       ....      31.819 sec  ( 59.8%)
XC gradient                 ....       3.713 sec  (  7.0%)
           ************************************************************
           *              Shut down parallel processing               *
           ************************************************************
------------------------------------------------------------------------------
                         ORCA GEOMETRY RELAXATION STEP
------------------------------------------------------------------------------

Reading the OPT-File                    .... done
Getting information on internals        .... done
Copying old internal coords+grads       .... done
Making the new internal coordinates     .... (new redundants).... done
Validating the new internal coordinates .... (new redundants).... done
Calculating the B-matrix                .... done
Calculating the G,G- and P matrices     .... done
Transforming gradient to internals      .... done
Projecting the internal gradient        .... done
Number of atoms                         ....  19
Number of internal coordinates          .... 134
Current Energy                          ....  -290.099862173 Eh
Current gradient norm                   ....     0.000755586 Eh/bohr
Maximum allowed component of the step   ....  0.300
Current trust radius                    ....  0.300
Evaluating the initial hessian          ....  (Almloef) done
Projecting the Hessian                  .... done
Forming the augmented Hessian           .... done
Diagonalizing the augmented Hessian     .... done
Last element of RFO vector              ....  0.999997007
Lowest eigenvalues of augmented Hessian:
 -0.000000865  0.014186514  0.014709080  0.035175900  0.045288662
Length of the computed step             ....  0.002446607
The final length of the internal step   ....  0.002446607
Converting the step to cartesian space:
 Initial RMS(Int)=    0.0002113546
Transforming coordinates:
 Iter   0:  RMS(Cart)=    0.0004092688 RMS(Int)=    0.7676132857
 Iter   1:  RMS(Cart)=    0.0000000809 RMS(Int)=    0.0000000411
done
Storing new coordinates                 .... done

                                .--------------------.
          ----------------------|Geometry convergence|---------------------
          Item                value                 Tolerance   Converged
          -----------------------------------------------------------------
          RMS gradient        0.00004169            0.00003000      NO
          MAX gradient        0.00018980            0.00010000      NO
          RMS step            0.00021135            0.00060000      YES
          MAX step            0.00053523            0.00100000      YES
          ....................................................
          Max(Bonds)      0.0003      Max(Angles)    0.02
          Max(Dihed)        0.03      Max(Improp)    0.00
          -----------------------------------------------------------------

The optimization has not yet converged - more geometry cycles are needed


    ---------------------------------------------------------------------------
                         Redundant Internal Coordinates
                            (Angstroem and degrees)

        Definition                    Value    dE/dq     Step     New-Value
    ----------------------------------------------------------------------------
     1. B(C   1,C   0)                1.4958 -0.000043  0.0001    1.4959   
     2. B(C   2,C   1)                1.5475  0.000080 -0.0001    1.5473   
     3. B(N   3,C   2)                1.5114 -0.000005  0.0000    1.5114   
     4. B(C   4,N   3)                1.5114 -0.000005  0.0000    1.5114   
     5. B(C   4,C   1)                1.5475  0.000080 -0.0001    1.5473   
     6. B(C   5,N   3)                1.5019 -0.000190  0.0003    1.5022   
     7. B(C   6,C   1)                1.5387 -0.000135  0.0002    1.5389   
     8. B(C   6,C   5)                1.5417 -0.000079  0.0001    1.5418   
     9. B(H   7,C   0)                1.0921  0.000049 -0.0001    1.0920   
    10. B(H   8,C   0)                1.0921  0.000049 -0.0001    1.0920   
    11. B(H   9,C   0)                1.0914 -0.000106  0.0002    1.0915   
    12. B(H  10,C   2)                1.0896  0.000090 -0.0001    1.0894   
    13. B(H  11,C   2)                1.0888 -0.000079  0.0001    1.0889   
    14. B(H  12,N   3)                1.0186  0.000063 -0.0001    1.0185   
    15. B(H  13,C   4)                1.0888 -0.000079  0.0001    1.0889   
    16. B(H  14,C   4)                1.0896  0.000090 -0.0001    1.0894   
    17. B(H  15,C   5)                1.0888  0.000033 -0.0000    1.0887   
    18. B(H  16,C   5)                1.0888  0.000033 -0.0000    1.0887   
    19. B(H  17,C   6)                1.0902  0.000168 -0.0002    1.0899   
    20. B(H  18,C   6)                1.0902  0.000168 -0.0002    1.0899   
    21. A(H   7,C   0,H   9)          108.13 -0.000024    0.00    108.13   
    22. A(C   1,C   0,H   9)          111.66  0.000013   -0.00    111.66   
    23. A(H   8,C   0,H   9)          108.13 -0.000024    0.00    108.13   
    24. A(C   1,C   0,H   7)          110.62  0.000046   -0.01    110.61   
    25. A(C   1,C   0,H   8)          110.62  0.000046   -0.01    110.61   
    26. A(H   7,C   0,H   8)          107.53 -0.000062    0.02    107.55   
    27. A(C   0,C   1,C   4)          122.88  0.000010   -0.01    122.87   
    28. A(C   2,C   1,C   6)          100.35 -0.000010    0.01    100.36   
    29. A(C   4,C   1,C   6)          100.35 -0.000010    0.01    100.36   
    30. A(C   2,C   1,C   4)           84.14  0.000011   -0.01     84.12   
    31. A(C   0,C   1,C   2)          122.88  0.000010   -0.01    122.87   
    32. A(C   0,C   1,C   6)          119.00 -0.000009    0.01    119.01   
    33. A(H  10,C   2,H  11)          112.01 -0.000013   -0.00    112.01   
    34. A(N   3,C   2,H  11)          109.76  0.000016   -0.00    109.76   
    35. A(C   1,C   2,H  11)          114.34  0.000033   -0.01    114.33   
    36. A(N   3,C   2,H  10)          113.83  0.000015   -0.00    113.83   
    37. A(C   1,C   2,H  10)          120.14 -0.000012    0.01    120.15   
    38. A(C   1,C   2,N   3)           83.32 -0.000040    0.01     83.33   
    39. A(C   2,N   3,C   5)          102.95 -0.000007    0.00    102.95   
    40. A(C   5,N   3,H  12)          116.76  0.000015   -0.00    116.76   
    41. A(C   4,N   3,H  12)          121.15 -0.000028    0.01    121.15   
    42. A(C   2,N   3,H  12)          121.15 -0.000028    0.01    121.15   
    43. A(C   2,N   3,C   4)           86.63  0.000066   -0.02     86.61   
    44. A(C   4,N   3,C   5)          102.95 -0.000007    0.00    102.95   
    45. A(C   1,C   4,H  14)          120.14 -0.000012    0.01    120.15   
    46. A(N   3,C   4,H  13)          109.76  0.000016   -0.00    109.76   
    47. A(C   1,C   4,H  13)          114.34  0.000033   -0.01    114.33   
    48. A(C   1,C   4,N   3)           83.32 -0.000040    0.01     83.33   
    49. A(H  13,C   4,H  14)          112.01 -0.000013   -0.00    112.01   
    50. A(N   3,C   4,H  14)          113.83  0.000015   -0.00    113.83   
    51. A(N   3,C   5,C   6)           98.84  0.000045    0.00     98.84   
    52. A(H  15,C   5,H  16)          109.72  0.000032   -0.01    109.71   
    53. A(C   6,C   5,H  16)          114.77 -0.000016    0.00    114.78   
    54. A(N   3,C   5,H  16)          108.99 -0.000024    0.01    109.00   
    55. A(C   6,C   5,H  15)          114.77 -0.000016    0.00    114.78   
    56. A(N   3,C   5,H  15)          108.99 -0.000024    0.01    109.00   
    57. A(C   1,C   6,C   5)           99.75 -0.000011   -0.00     99.75   
    58. A(H  17,C   6,H  18)          108.39 -0.000034    0.02    108.41   
    59. A(C   5,C   6,H  18)          112.36  0.000031   -0.01    112.35   
    60. A(C   1,C   6,H  18)          111.94 -0.000006    0.00    111.94   
    61. A(C   5,C   6,H  17)          112.36  0.000031   -0.01    112.35   
    62. A(C   1,C   6,H  17)          111.94 -0.000006    0.00    111.94   
    63. D(C   6,C   1,C   0,H   8)    -59.52  0.000009   -0.01    -59.53   
    64. D(C   6,C   1,C   0,H   7)     59.52 -0.000009    0.01     59.53   
    65. D(C   6,C   1,C   0,H   9)    180.00  0.000000    0.00    180.00   
    66. D(C   2,C   1,C   0,H   7)    -67.56  0.000007   -0.01    -67.57   
    67. D(C   4,C   1,C   0,H   7)   -173.40 -0.000026    0.02   -173.37   
    68. D(C   4,C   1,C   0,H   8)     67.56 -0.000007    0.01     67.57   
    69. D(C   2,C   1,C   0,H   8)    173.40  0.000026   -0.02    173.37   
    70. D(C   4,C   1,C   0,H   9)    -52.92 -0.000016    0.02    -52.90   
    71. D(C   2,C   1,C   0,H   9)     52.92  0.000016   -0.02     52.90   
    72. D(N   3,C   2,C   1,C   4)    -34.44  0.000007   -0.01    -34.45   
    73. D(N   3,C   2,C   1,C   6)     65.05 -0.000001   -0.01     65.04   
    74. D(H  11,C   2,C   1,C   6)    173.75 -0.000001   -0.00    173.75   
    75. D(H  10,C   2,C   1,C   6)    -48.68  0.000006   -0.01    -48.69   
    76. D(H  10,C   2,C   1,C   4)   -148.17  0.000014   -0.02   -148.19   
    77. D(N   3,C   2,C   1,C   0)   -160.13 -0.000016    0.01   -160.12   
    78. D(H  11,C   2,C   1,C   4)     74.26  0.000007   -0.01     74.25   
    79. D(H  11,C   2,C   1,C   0)    -51.43 -0.000016    0.01    -51.42   
    80. D(H  10,C   2,C   1,C   0)     86.14 -0.000009    0.01     86.15   
    81. D(H  12,N   3,C   2,C   1)    159.98  0.000014    0.00    159.98   
    82. D(C   5,N   3,C   2,H  11)    179.22 -0.000018    0.02    179.24   
    83. D(H  12,N   3,C   2,H  10)    -79.96 -0.000015    0.02    -79.94   
    84. D(C   5,N   3,C   2,H  10)     52.79 -0.000024    0.03     52.81   
    85. D(H  12,N   3,C   2,H  11)     46.47 -0.000008    0.01     46.49   
    86. D(C   4,N   3,C   2,C   1)     35.24  0.000012    0.01     35.25   
    87. D(C   5,N   3,C   2,C   1)    -67.27  0.000005    0.01    -67.26   
    88. D(C   4,N   3,C   2,H  10)    155.30 -0.000017    0.02    155.32   
    89. D(C   4,N   3,C   2,H  11)    -78.26 -0.000011    0.02    -78.24   
    90. D(N   3,C   4,C   1,C   6)    -65.05  0.000001    0.01    -65.04   
    91. D(N   3,C   4,C   1,C   2)     34.44 -0.000007    0.01     34.45   
    92. D(H  13,C   4,C   1,C   0)     51.43  0.000016   -0.01     51.42   
    93. D(N   3,C   4,C   1,C   0)    160.13  0.000016   -0.01    160.12   
    94. D(H  14,C   4,N   3,H  12)     79.96  0.000015   -0.02     79.94   
    95. D(H  14,C   4,N   3,C   5)    -52.79  0.000024   -0.03    -52.81   
    96. D(H  13,C   4,N   3,H  12)    -46.47  0.000008   -0.01    -46.49   
    97. D(H  13,C   4,N   3,C   5)   -179.22  0.000018   -0.02   -179.24   
    98. D(H  13,C   4,N   3,C   2)     78.26  0.000011   -0.02     78.24   
    99. D(C   1,C   4,N   3,H  12)   -159.98 -0.000014   -0.00   -159.98   
   100. D(C   1,C   4,N   3,C   5)     67.27 -0.000005   -0.01     67.26   
   101. D(C   1,C   4,N   3,C   2)    -35.24 -0.000012   -0.01    -35.25   
   102. D(H  14,C   4,C   1,C   6)     48.68 -0.000006    0.01     48.69   
   103. D(H  14,C   4,C   1,C   2)    148.17 -0.000014    0.02    148.19   
   104. D(H  14,C   4,N   3,C   2)   -155.30  0.000017   -0.02   -155.32   
   105. D(H  14,C   4,C   1,C   0)    -86.14  0.000009   -0.01    -86.15   
   106. D(H  13,C   4,C   1,C   6)   -173.75  0.000001    0.00   -173.75   
   107. D(H  13,C   4,C   1,C   2)    -74.26 -0.000007    0.01    -74.25   
   108. D(H  16,C   5,N   3,H  12)    -59.87 -0.000005    0.00    -59.86   
   109. D(H  16,C   5,N   3,C   4)     75.39 -0.000038    0.02     75.41   
   110. D(H  16,C   5,N   3,C   2)    164.87  0.000028   -0.01    164.87   
   111. D(H  15,C   5,N   3,H  12)     59.87  0.000005   -0.00     59.86   
   112. D(H  15,C   5,N   3,C   4)   -164.87 -0.000028    0.01   -164.87   
   113. D(H  15,C   5,N   3,C   2)    -75.39  0.000038   -0.02    -75.41   
   114. D(C   6,C   5,N   3,H  12)    180.00  0.000000   -0.00    180.00   
   115. D(C   6,C   5,N   3,C   4)    -44.74 -0.000033    0.01    -44.73   
   116. D(C   6,C   5,N   3,C   2)     44.74  0.000033   -0.01     44.73   
   117. D(H  18,C   6,C   1,C   2)     76.10  0.000023   -0.01     76.10   
   118. D(H  18,C   6,C   1,C   0)    -60.97  0.000026   -0.01    -60.98   
   119. D(H  17,C   6,C   1,C   4)    -76.10 -0.000023    0.01    -76.10   
   120. D(H  17,C   6,C   1,C   2)   -161.96 -0.000030    0.02   -161.95   
   121. D(H  17,C   6,C   1,C   0)     60.97 -0.000026    0.01     60.98   
   122. D(C   5,C   6,C   1,C   4)     42.93  0.000004   -0.01     42.92   
   123. D(C   5,C   6,C   1,C   2)    -42.93 -0.000004    0.01    -42.92   
   124. D(H  18,C   6,C   1,C   4)    161.96  0.000030   -0.02    161.95   
   125. D(C   5,C   6,C   1,C   0)    180.00 -0.000000    0.00    180.00   
   126. D(H  18,C   6,C   5,H  16)    125.52  0.000009   -0.01    125.51   
   127. D(H  18,C   6,C   5,N   3)   -118.72  0.000001    0.00   -118.72   
   128. D(H  17,C   6,C   5,H  16)      2.97  0.000008   -0.01      2.96   
   129. D(H  17,C   6,C   5,H  15)   -125.52 -0.000009    0.01   -125.51   
   130. D(H  17,C   6,C   5,N   3)    118.72 -0.000001   -0.00    118.72   
   131. D(C   1,C   6,C   5,H  16)   -115.76  0.000008   -0.01   -115.76   
   132. D(H  18,C   6,C   5,H  15)     -2.97 -0.000008    0.01     -2.96   
   133. D(C   1,C   6,C   5,H  15)    115.76 -0.000008    0.01    115.76   
   134. D(C   1,C   6,C   5,N   3)      0.00 -0.000000    0.00      0.00   
    ----------------------------------------------------------------------------

         *************************************************************
         *                GEOMETRY OPTIMIZATION CYCLE   2            *
         *************************************************************
---------------------------------
CARTESIAN COORDINATES (ANGSTROEM)
---------------------------------
  C     -1.976533    1.023717    0.000000
  C     -0.651627    0.329209   -0.000000
  C      0.456090    0.633651    1.036595
  N      1.355105   -0.000033    0.000000
  C      0.456090    0.633651   -1.036595
  C      0.909713   -1.434689   -0.000000
  C     -0.615487   -1.209297   -0.000000
  H     -2.557703    0.743142    0.880893
  H     -2.557703    0.743142   -0.880893
  H     -1.862324    2.109252   -0.000000
  H      0.462252    0.120298    1.997487
  H      0.698121    1.690595    1.137100
  H      2.359634    0.168333    0.000000
  H      0.698121    1.690595   -1.137100
  H      0.462252    0.120298   -1.997487
  H      1.298238   -1.926439    0.890235
  H      1.298238   -1.926439   -0.890235
  H     -1.096248   -1.627973   -0.884052
  H     -1.096248   -1.627973    0.884052

----------------------------
CARTESIAN COORDINATES (A.U.)
----------------------------
  NO LB      ZA    FRAG    MASS        X           Y           Z
   0 C     6.0000    0    12.011         -3.735106491220127          1.934544151874895          0.000000002240888
   1 C     6.0000    0    12.011         -1.231396022147672          0.622114116842007         -0.000000018553763
   2 C     6.0000    0    12.011          0.861884823044971          1.197426869889468          1.958880795136075
   3 N     7.0000    0    14.007          2.560777130606085         -0.000062284853544          0.000000005239089
   4 C     6.0000    0    12.011          0.861884861925794          1.197426867462975         -1.958880806152848
   5 C     6.0000    0    12.011          1.719108640209720         -2.711168850048595         -0.000000013393293
   6 C     6.0000    0    12.011         -1.163102396816321         -2.285239585956155         -0.000000000756852
   7 H     1.0000    0     1.008         -4.833358961905906          1.404335601877904          1.664646856338934
   8 H     1.0000    0     1.008         -4.833359069419562          1.404335529625890         -1.664646764316622
   9 H     1.0000    0     1.008         -3.519282987202248          3.985908887325342         -0.000000038158601
  10 H     1.0000    0     1.008          0.873529718775633          0.227330485700465          3.774703691500216
  11 H     1.0000    0     1.008          1.319256719815694          3.194761547676002          2.148807696201896
  12 H     1.0000    0     1.008          4.459062848515060          0.318103983970686          0.000000021452202
  13 H     1.0000    0     1.008          1.319256783529902          3.194761537562963         -2.148807685815816
  14 H     1.0000    0     1.008          0.873529807731272          0.227330493418164         -3.774703714041015
  15 H     1.0000    0     1.008          2.453314639112791         -3.640442240475743          1.682300769511751
  16 H     1.0000    0     1.008          2.453314631610407         -3.640442234706499         -1.682300808012801
  17 H     1.0000    0     1.008         -2.071607684396565         -3.076423855682722         -1.670617001591133
  18 H     1.0000    0     1.008         -2.071607675798017         -3.076423839985635          1.670617013171692

--------------------------------
INTERNAL COORDINATES (ANGSTROEM)
--------------------------------
 C      0   0   0   0.000000     0.000     0.000
 C      1   0   0   1.495901     0.000     0.000
 C      2   1   0   1.547337   122.868     0.000
 N      3   2   1   1.511394    83.331   199.882
 C      4   3   2   1.511394    86.606    35.251
 C      4   3   2   1.502202   102.947   292.738
 C      2   1   3   1.538930   119.009   127.098
 H      1   2   3   1.091995   110.615   292.429
 H      1   2   3   1.091995   110.615   173.374
 H      1   2   3   1.091527   111.657    52.902
 H      3   2   1   1.089441   120.146    86.149
 H      3   2   1   1.088949   114.325   308.584
 H      4   3   2   1.018542   121.154   159.982
 H      5   4   3   1.088949   109.758    78.243
 H      5   4   3   1.089442   113.828   204.675
 H      6   4   3   1.088710   109.000   284.590
 H      6   4   3   1.088710   109.000   164.867
 H      7   2   1   1.089940   111.942    60.979
 H      7   2   1   1.089940   111.942   299.021

---------------------------
INTERNAL COORDINATES (A.U.)
---------------------------
 C      0   0   0   0.000000     0.000     0.000
 C      1   0   0   2.826843     0.000     0.000
 C      2   1   0   2.924042   122.868     0.000
 N      3   2   1   2.856121    83.331   199.882
 C      4   3   2   2.856121    86.606    35.251
 C      4   3   2   2.838751   102.947   292.738
 C      2   1   3   2.908156   119.009   127.098
 H      1   2   3   2.063572   110.615   292.429
 H      1   2   3   2.063572   110.615   173.374
 H      1   2   3   2.062687   111.657    52.902
 H      3   2   1   2.058746   120.146    86.149
 H      3   2   1   2.057816   114.325   308.584
 H      4   3   2   1.924765   121.154   159.982
 H      5   4   3   2.057816   109.758    78.243
 H      5   4   3   2.058746   113.828   204.675
 H      6   4   3   2.057363   109.000   284.590
 H      6   4   3   2.057363   109.000   164.867
 H      7   2   1   2.059688   111.942    60.979
 H      7   2   1   2.059688   111.942   299.021



           ************************************************************
           *        Program running with 8 parallel MPI-processes     *
           *              working on a common directory               *
           ************************************************************
           ************************************************************
           *              Shut down parallel processing               *
           ************************************************************


           ************************************************************
           *        Program running with 8 parallel MPI-processes     *
           *              working on a common directory               *
           ************************************************************

Diagonalization of the overlap matrix:
Smallest eigenvalue                        ... 3.664e-05
Time for diagonalization                   ...    0.230 sec
Threshold for overlap eigenvalues          ... 1.000e-08
Number of eigenvalues below threshold      ... 0
Time for construction of square roots      ...    0.014 sec
Producing symmetrization matrix            ... done (   0.012 sec)
Total time needed                          ...    0.256 sec

Warning: Geometry matches/Basis set matches and symmetry is to be used
         We proceed in good trust that the input orbitals and irreps are correct
Irrep occupations for operator 0
    A' -   19
    A" -    8
-------------------
DFT GRID GENERATION
-------------------

General Integration Accuracy     IntAcc      ...  4.340
Radial Grid Type                 RadialGrid  ... Gauss-Chebyshev
Angular Grid (max. acc.)         AngularGrid ... Lebedev-194
Angular grid pruning method      GridPruning ... 3 (G Style)
Weight generation scheme         WeightScheme... Becke
Basis function cutoff            BFCut       ...    1.0000e-11
Integration weight cutoff        WCut        ...    1.0000e-14
Grids for H and He will be reduced by one unit

# of grid points (after initial pruning)     ...  41338 (   0.0 sec)
# of grid points (after weights+screening)   ...  37240 (   0.1 sec)
nearest neighbour list constructed           ...    0.0 sec
Grid point re-assignment to atoms done       ...    0.0 sec
Grid point division into batches done        ...    0.1 sec
Reduced shell lists constructed in    0.1 sec

Total number of grid points                  ...    37240
Total number of batches                      ...      591
Average number of points per batch           ...       63
Average number of grid points per atom       ...     1960
Average number of shells per batch           ...   106.12 (84.90%)
Average number of basis functions per batch  ...   258.63 (89.49%)
Average number of large shells per batch     ...    90.15 (84.95%)
Average number of large basis fcns per batch ...   220.79 (85.37%)
Maximum spatial batch extension              ...   2.90,  2.47,  2.28 au
Average spatial batch extension              ...   0.15,  0.15,  0.15 au

Time for grid setup =    0.596 sec

--------------
SCF ITERATIONS
--------------
ITER       Energy         Delta-E        Max-DP      RMS-DP      [F,P]     Damp
               ***  Starting incremental Fock matrix formation  ***
                      *** Initiating the SOSCF procedure ***
                      *** Re-Reading the Fockian *** 
                      *** Removing any level shift *** 
ITER      Energy       Delta-E        Grad      Rot      Max-DP    RMS-DP
  0   -290.10028775 -290.1002877492  0.000035  0.000035  0.000122  0.000004
               *** Restarting incremental Fock matrix formation ***
  1   -290.10028793  -0.0000001804  0.000009  0.000025  0.000048  0.000001
  2   -290.10028792   0.0000000124  0.000020  0.000020  0.000038  0.000001
  3   -290.10028794  -0.0000000182  0.000004  0.000021  0.000023  0.000001
  4   -290.10028793   0.0000000018  0.000005  0.000014  0.000012  0.000000
                  ***Gradient check signals convergence***
              ***Rediagonalizing the Fockian in SOSCF/NRSCF***

               *****************************************************
               *                     SUCCESS                       *
               *           SCF CONVERGED AFTER   5 CYCLES          *
               *****************************************************

Setting up the final grid:

General Integration Accuracy     IntAcc      ...  5.010
Radial Grid Type                 RadialGrid  ... Gauss-Chebyshev
Angular Grid (max. acc.)         AngularGrid ... Lebedev-434
Angular grid pruning method      GridPruning ... 3 (G Style)
Weight generation scheme         WeightScheme... Becke
Basis function cutoff            BFCut       ...    1.0000e-11
Integration weight cutoff        WCut        ...    1.0000e-14
Grids for H and He will be reduced by one unit

# of grid points (after initial pruning)     ... 155082 (   0.0 sec)
# of grid points (after weights+screening)   ... 138036 (   3.4 sec)
nearest neighbour list constructed           ...    0.0 sec
Grid point re-assignment to atoms done       ...    0.0 sec
Grid point division into batches done        ...    0.9 sec
Reduced shell lists constructed in    1.2 sec

Total number of grid points                  ...   138036
Total number of batches                      ...     2167
Average number of points per batch           ...       63
Average number of grid points per atom       ...     7265
Average number of shells per batch           ...   104.85 (83.88%)
Average number of basis functions per batch  ...   256.68 (88.82%)
Average number of large shells per batch     ...    87.63 (83.58%)
Average number of large basis fcns per batch ...   214.39 (83.53%)
Maximum spatial batch extension              ...   2.61,  1.76,  2.69 au
Average spatial batch extension              ...   0.10,  0.10,  0.10 au

Final grid set up in    6.9 sec
Final integration                            ... done (   2.0 sec)
Change in XC energy                          ...     0.000425298
Integrated number of electrons               ...    54.000014358
Previous integrated no of electrons          ...    53.999850606
Total Energy       :         -290.09986264 Eh           -7894.01859 eV
  Last Energy change         ...   -2.2473e-09  Tolerance :   1.0000e-08
  Last MAX-Density change    ...    1.1399e-05  Tolerance :   1.0000e-07
             **** THE GBW FILE WAS UPDATED (1627_+.gbw) ****
             **** DENSITY FILE WAS UPDATED (1627_+.scfp.tmp) ****
             **** ENERGY FILE WAS UPDATED (1627_+.en.tmp) ****
Total SCF time: 0 days 0 hours 1 min 22 sec 
           ************************************************************
           *              Shut down parallel processing               *
           ************************************************************

-------------------------   --------------------
FINAL SINGLE POINT ENERGY      -290.099862638234
-------------------------   --------------------



           ************************************************************
           *        Program running with 8 parallel MPI-processes     *
           *              working on a common directory               *
           ************************************************************
------------------------------------------------------------------------------
                         ORCA SCF GRADIENT CALCULATION
------------------------------------------------------------------------------

Gradient of the Kohn-Sham DFT energy:
Kohn-Sham wavefunction type      ... RKS
Hartree-Fock exchange scaling    ...    0.250
Number of operators              ...    1
Number of atoms                  ...   19
Basis set dimensions             ...  289
Integral neglect threshold       ... 2.5e-11
Integral primitive cutoff        ... 2.5e-12

Nuclear repulsion gradient       ... done
One Electron Gradient            ... done
Pre-screening matrix             ... done
Starting the two electron gradient:
Two electron gradient done
Exchange-correlation gradient    ... done

------------------
CARTESIAN GRADIENT
------------------

   1   C   :    0.000084961   -0.000025105   -0.000000000
   2   C   :   -0.000099965   -0.000042307   -0.000000006
   3   C   :    0.000071553    0.000075084   -0.000012550
   4   N   :   -0.000071957   -0.000113729    0.000000003
   5   C   :    0.000071551    0.000075083    0.000012552
   6   C   :    0.000027894    0.000041403   -0.000000001
   7   C   :    0.000122098    0.000033902    0.000000002
   8   H   :   -0.000029386   -0.000003517   -0.000012669
   9   H   :   -0.000029396   -0.000003522    0.000012674
  10   H   :   -0.000017087   -0.000002185   -0.000000004
  11   H   :   -0.000019452   -0.000016067   -0.000011577
  12   H   :    0.000012421   -0.000007790    0.000020911
  13   H   :   -0.000001917    0.000024668    0.000000001
  14   H   :    0.000012425   -0.000007784   -0.000020913
  15   H   :   -0.000019448   -0.000016066    0.000011576
  16   H   :   -0.000012086    0.000006206    0.000010189
  17   H   :   -0.000012084    0.000006203   -0.000010191
  18   H   :   -0.000045063   -0.000012237    0.000017564
  19   H   :   -0.000045064   -0.000012239   -0.000017563

Norm of the cartesian gradient     ...    0.000299174
RMS gradient                       ...    0.000039627
MAX gradient                       ...    0.000122098

-------
TIMINGS
-------

Total SCF gradient time            ...       72.075 sec

One electron gradient       ....       0.239 sec  (  0.3%)
Prescreening matrices       ....       0.700 sec  (  1.0%)
Two electron gradient       ....      31.489 sec  ( 43.7%)
XC gradient                 ....       7.278 sec  ( 10.1%)
           ************************************************************
           *              Shut down parallel processing               *
           ************************************************************
------------------------------------------------------------------------------
                         ORCA GEOMETRY RELAXATION STEP
------------------------------------------------------------------------------

Reading the OPT-File                    .... done
Getting information on internals        .... done
Copying old internal coords+grads       .... done
Making the new internal coordinates     .... (new redundants).... done
Validating the new internal coordinates .... (new redundants).... done
Calculating the B-matrix                .... done
Calculating the G,G- and P matrices     .... done
Transforming gradient to internals      .... done
Projecting the internal gradient        .... done
Number of atoms                         ....  19
Number of internal coordinates          .... 134
Current Energy                          ....  -290.099862638 Eh
Current gradient norm                   ....     0.000299174 Eh/bohr
Maximum allowed component of the step   ....  0.300
Current trust radius                    ....  0.300
Updating the Hessian (BFGS)             .... done
Forming the augmented Hessian           .... done
Diagonalizing the augmented Hessian     .... done
Last element of RFO vector              ....  0.999998678
Lowest eigenvalues of augmented Hessian:
 -0.000000204  0.014186514  0.014709080  0.035080986  0.045288662
Length of the computed step             ....  0.001626112
The final length of the internal step   ....  0.001626112
Converting the step to cartesian space:
 Initial RMS(Int)=    0.0001404747
Transforming coordinates:
 Iter   0:  RMS(Cart)=    0.0002568620 RMS(Int)=    0.9401303971
 Iter   1:  RMS(Cart)=    0.0000000365 RMS(Int)=    0.0000000196
done
Storing new coordinates                 .... done

                                .--------------------.
          ----------------------|Geometry convergence|---------------------
          Item                value                 Tolerance   Converged
          -----------------------------------------------------------------
          Energy change      -0.00000047            0.00000100      YES
          RMS gradient        0.00001294            0.00003000      YES
          MAX gradient        0.00004409            0.00010000      YES
          RMS step            0.00014047            0.00060000      YES
          MAX step            0.00034751            0.00100000      YES
          ....................................................
          Max(Bonds)      0.0001      Max(Angles)    0.02
          Max(Dihed)        0.02      Max(Improp)    0.00
          -----------------------------------------------------------------

                    ***********************HURRAY********************
                    ***        THE OPTIMIZATION HAS CONVERGED     ***
                    *************************************************


    ---------------------------------------------------------------------------
                         Redundant Internal Coordinates

                          --- Optimized Parameters ---  
                            (Angstroem and degrees)

        Definition                    OldVal   dE/dq     Step     FinalVal
    ----------------------------------------------------------------------------
     1. B(C   1,C   0)                1.4959 -0.000024  0.0000    1.4959   
     2. B(C   2,C   1)                1.5473  0.000035 -0.0001    1.5472   
     3. B(N   3,C   2)                1.5114 -0.000009  0.0000    1.5114   
     4. B(C   4,N   3)                1.5114 -0.000009  0.0000    1.5114   
     5. B(C   4,C   1)                1.5473  0.000035 -0.0001    1.5472   
     6. B(C   5,N   3)                1.5022 -0.000044  0.0001    1.5023   
     7. B(C   6,C   1)                1.5389 -0.000024  0.0001    1.5390   
     8. B(C   6,C   5)                1.5418 -0.000020  0.0001    1.5418   
     9. B(H   7,C   0)                1.0920  0.000006 -0.0000    1.0920   
    10. B(H   8,C   0)                1.0920  0.000006 -0.0000    1.0920   
    11. B(H   9,C   0)                1.0915 -0.000004  0.0000    1.0916   
    12. B(H  10,C   2)                1.0894 -0.000003 -0.0000    1.0894   
    13. B(H  11,C   2)                1.0889 -0.000003  0.0000    1.0890   
    14. B(H  12,N   3)                1.0185  0.000002 -0.0000    1.0185   
    15. B(H  13,C   4)                1.0889 -0.000003  0.0000    1.0890   
    16. B(H  14,C   4)                1.0894 -0.000003 -0.0000    1.0894   
    17. B(H  15,C   5)                1.0887  0.000001 -0.0000    1.0887   
    18. B(H  16,C   5)                1.0887  0.000001 -0.0000    1.0887   
    19. B(H  17,C   6)                1.0899  0.000010 -0.0001    1.0899   
    20. B(H  18,C   6)                1.0899  0.000010 -0.0001    1.0899   
    21. A(H   7,C   0,H   9)          108.13 -0.000015    0.00    108.13   
    22. A(C   1,C   0,H   9)          111.66  0.000018   -0.01    111.65   
    23. A(H   8,C   0,H   9)          108.13 -0.000015    0.00    108.13   
    24. A(C   1,C   0,H   7)          110.61  0.000022   -0.01    110.61   
    25. A(C   1,C   0,H   8)          110.61  0.000022   -0.01    110.61   
    26. A(H   7,C   0,H   8)          107.55 -0.000036    0.02    107.56   
    27. A(C   0,C   1,C   4)          122.87  0.000014   -0.01    122.86   
    28. A(C   2,C   1,C   6)          100.36  0.000001    0.00    100.37   
    29. A(C   4,C   1,C   6)          100.36  0.000001    0.00    100.37   
    30. A(C   2,C   1,C   4)           84.12 -0.000018    0.00     84.13   
    31. A(C   0,C   1,C   2)          122.87  0.000014   -0.01    122.86   
    32. A(C   0,C   1,C   6)          119.01 -0.000014    0.01    119.02   
    33. A(H  10,C   2,H  11)          112.01 -0.000002   -0.00    112.00   
    34. A(N   3,C   2,H  11)          109.76  0.000014   -0.00    109.75   
    35. A(C   1,C   2,H  11)          114.33  0.000022   -0.01    114.31   
    36. A(N   3,C   2,H  10)          113.83 -0.000007    0.00    113.83   
    37. A(C   1,C   2,H  10)          120.15 -0.000020    0.01    120.16   
    38. A(C   1,C   2,N   3)           83.33 -0.000006    0.00     83.33   
    39. A(C   2,N   3,C   5)          102.95  0.000007   -0.01    102.94   
    40. A(C   5,N   3,H  12)          116.76  0.000002   -0.00    116.76   
    41. A(C   4,N   3,H  12)          121.15 -0.000011    0.01    121.16   
    42. A(C   2,N   3,H  12)          121.15 -0.000011    0.01    121.16   
    43. A(C   2,N   3,C   4)           86.61  0.000010   -0.00     86.60   
    44. A(C   4,N   3,C   5)          102.95  0.000007   -0.01    102.94   
    45. A(C   1,C   4,H  14)          120.15 -0.000020    0.01    120.16   
    46. A(N   3,C   4,H  13)          109.76  0.000014   -0.00    109.75   
    47. A(C   1,C   4,H  13)          114.33  0.000022   -0.01    114.31   
    48. A(C   1,C   4,N   3)           83.33 -0.000006    0.00     83.33   
    49. A(H  13,C   4,H  14)          112.01 -0.000002   -0.00    112.00   
    50. A(N   3,C   4,H  14)          113.83 -0.000007    0.00    113.83   
    51. A(N   3,C   5,C   6)           98.84  0.000015    0.00     98.84   
    52. A(H  15,C   5,H  16)          109.71  0.000012   -0.01    109.70   
    53. A(C   6,C   5,H  16)          114.78 -0.000009    0.00    114.78   
    54. A(N   3,C   5,H  16)          109.00 -0.000004    0.00    109.00   
    55. A(C   6,C   5,H  15)          114.78 -0.000009    0.00    114.78   
    56. A(N   3,C   5,H  15)          109.00 -0.000004    0.00    109.00   
    57. A(C   1,C   6,C   5)           99.75 -0.000002   -0.01     99.75   
    58. A(H  17,C   6,H  18)          108.41 -0.000025    0.02    108.43   
    59. A(C   5,C   6,H  18)          112.35  0.000017   -0.01    112.33   
    60. A(C   1,C   6,H  18)          111.94 -0.000002    0.00    111.94   
    61. A(C   5,C   6,H  17)          112.35  0.000017   -0.01    112.33   
    62. A(C   1,C   6,H  17)          111.94 -0.000002    0.00    111.94   
    63. D(C   6,C   1,C   0,H   8)    -59.53  0.000008   -0.01    -59.53   
    64. D(C   6,C   1,C   0,H   7)     59.53 -0.000008    0.01     59.53   
    65. D(C   6,C   1,C   0,H   9)   -180.00  0.000000   -0.00   -180.00   
    66. D(C   2,C   1,C   0,H   7)    -67.57 -0.000009    0.00    -67.57   
    67. D(C   4,C   1,C   0,H   7)   -173.37 -0.000007    0.01   -173.36   
    68. D(C   4,C   1,C   0,H   8)     67.57  0.000009   -0.00     67.57   
    69. D(C   2,C   1,C   0,H   8)    173.37  0.000007   -0.01    173.36   
    70. D(C   4,C   1,C   0,H   9)    -52.90  0.000001    0.00    -52.90   
    71. D(C   2,C   1,C   0,H   9)     52.90 -0.000001   -0.00     52.90   
    72. D(N   3,C   2,C   1,C   4)    -34.45 -0.000010    0.00    -34.45   
    73. D(N   3,C   2,C   1,C   6)     65.04 -0.000012    0.01     65.05   
    74. D(H  11,C   2,C   1,C   6)    173.75  0.000001    0.00    173.75   
    75. D(H  10,C   2,C   1,C   6)    -48.69  0.000002    0.00    -48.69   
    76. D(H  10,C   2,C   1,C   4)   -148.19  0.000004   -0.00   -148.19   
    77. D(N   3,C   2,C   1,C   0)   -160.12 -0.000019    0.02   -160.10   
    78. D(H  11,C   2,C   1,C   4)     74.25  0.000002    0.00     74.25   
    79. D(H  11,C   2,C   1,C   0)    -51.42 -0.000007    0.01    -51.40   
    80. D(H  10,C   2,C   1,C   0)     86.15 -0.000005    0.01     86.16   
    81. D(H  12,N   3,C   2,C   1)    159.98  0.000010    0.00    159.98   
    82. D(C   5,N   3,C   2,H  11)    179.24 -0.000011    0.01    179.26   
    83. D(H  12,N   3,C   2,H  10)    -79.94 -0.000015    0.02    -79.93   
    84. D(C   5,N   3,C   2,H  10)     52.81 -0.000015    0.02     52.83   
    85. D(H  12,N   3,C   2,H  11)     46.49 -0.000012    0.02     46.50   
    86. D(C   4,N   3,C   2,C   1)     35.25  0.000020   -0.01     35.24   
    87. D(C   5,N   3,C   2,C   1)    -67.26  0.000011    0.00    -67.26   
    88. D(C   4,N   3,C   2,H  10)    155.32 -0.000005    0.01    155.33   
    89. D(C   4,N   3,C   2,H  11)    -78.24 -0.000002    0.01    -78.24   
    90. D(N   3,C   4,C   1,C   6)    -65.04  0.000012   -0.01    -65.05   
    91. D(N   3,C   4,C   1,C   2)     34.45  0.000010   -0.00     34.45   
    92. D(H  13,C   4,C   1,C   0)     51.42  0.000007   -0.01     51.40   
    93. D(N   3,C   4,C   1,C   0)    160.12  0.000019   -0.02    160.10   
    94. D(H  14,C   4,N   3,H  12)     79.94  0.000015   -0.02     79.93   
    95. D(H  14,C   4,N   3,C   5)    -52.81  0.000015   -0.02    -52.83   
    96. D(H  13,C   4,N   3,H  12)    -46.49  0.000012   -0.02    -46.50   
    97. D(H  13,C   4,N   3,C   5)   -179.24  0.000011   -0.01   -179.26   
    98. D(H  13,C   4,N   3,C   2)     78.24  0.000002   -0.01     78.24   
    99. D(C   1,C   4,N   3,H  12)   -159.98 -0.000010   -0.00   -159.98   
   100. D(C   1,C   4,N   3,C   5)     67.26 -0.000011   -0.00     67.26   
   101. D(C   1,C   4,N   3,C   2)    -35.25 -0.000020    0.01    -35.24   
   102. D(H  14,C   4,C   1,C   6)     48.69 -0.000002   -0.00     48.69   
   103. D(H  14,C   4,C   1,C   2)    148.19 -0.000004    0.00    148.19   
   104. D(H  14,C   4,N   3,C   2)   -155.32  0.000005   -0.01   -155.33   
   105. D(H  14,C   4,C   1,C   0)    -86.15  0.000005   -0.01    -86.16   
   106. D(H  13,C   4,C   1,C   6)   -173.75 -0.000001   -0.00   -173.75   
   107. D(H  13,C   4,C   1,C   2)    -74.25 -0.000002   -0.00    -74.25   
   108. D(H  16,C   5,N   3,H  12)    -59.86 -0.000005    0.00    -59.86   
   109. D(H  16,C   5,N   3,C   4)     75.41 -0.000011    0.01     75.42   
   110. D(H  16,C   5,N   3,C   2)    164.87  0.000002    0.00    164.87   
   111. D(H  15,C   5,N   3,H  12)     59.86  0.000005   -0.00     59.86   
   112. D(H  15,C   5,N   3,C   4)   -164.87 -0.000002   -0.00   -164.87   
   113. D(H  15,C   5,N   3,C   2)    -75.41  0.000011   -0.01    -75.42   
   114. D(C   6,C   5,N   3,H  12)    180.00 -0.000000    0.00    180.00   
   115. D(C   6,C   5,N   3,C   4)    -44.73 -0.000007    0.00    -44.73   
   116. D(C   6,C   5,N   3,C   2)     44.73  0.000007   -0.00     44.73   
   117. D(H  18,C   6,C   1,C   2)     76.10  0.000027   -0.02     76.08   
   118. D(H  18,C   6,C   1,C   0)    -60.98  0.000018   -0.01    -60.99   
   119. D(H  17,C   6,C   1,C   4)    -76.10 -0.000027    0.02    -76.08   
   120. D(H  17,C   6,C   1,C   2)   -161.95 -0.000009    0.01   -161.93   
   121. D(H  17,C   6,C   1,C   0)     60.98 -0.000018    0.01     60.99   
   122. D(C   5,C   6,C   1,C   4)     42.92 -0.000009    0.00     42.93   
   123. D(C   5,C   6,C   1,C   2)    -42.92  0.000009   -0.00    -42.93   
   124. D(H  18,C   6,C   1,C   4)    161.95  0.000009   -0.01    161.93   
   125. D(C   5,C   6,C   1,C   0)   -180.00  0.000000   -0.00   -180.00   
   126. D(H  18,C   6,C   5,H  16)    125.51 -0.000004    0.00    125.52   
   127. D(H  18,C   6,C   5,N   3)   -118.72 -0.000004    0.00   -118.72   
   128. D(H  17,C   6,C   5,H  16)      2.96  0.000003   -0.01      2.95   
   129. D(H  17,C   6,C   5,H  15)   -125.51  0.000004   -0.00   -125.52   
   130. D(H  17,C   6,C   5,N   3)    118.72  0.000004   -0.00    118.72   
   131. D(C   1,C   6,C   5,H  16)   -115.76 -0.000000   -0.00   -115.77   
   132. D(H  18,C   6,C   5,H  15)     -2.96 -0.000003    0.01     -2.95   
   133. D(C   1,C   6,C   5,H  15)    115.76  0.000000    0.00    115.77   
   134. D(C   1,C   6,C   5,N   3)      0.00  0.000000   -0.00     -0.00   
    ----------------------------------------------------------------------------
                 *******************************************************
                 *** FINAL ENERGY EVALUATION AT THE STATIONARY POINT ***
                 ***               (AFTER    2 CYCLES)               ***
                 *******************************************************


           ************************************************************
           *        Program running with 8 parallel MPI-processes     *
           *              working on a common directory               *
           ************************************************************
           ************************************************************
           *              Shut down parallel processing               *
           ************************************************************


           ************************************************************
           *        Program running with 8 parallel MPI-processes     *
           *              working on a common directory               *
           ************************************************************
------------
SCF SETTINGS
------------
Hamiltonian:
 Density Functional     Method          .... DFT(GTOs)
 Exchange Functional    Exchange        .... PBE
   PBE kappa parameter  XKappa          ....  0.804000
 Correlation Functional Correlation     .... PBE
 LDA part of GGA corr.  LDAOpt          .... PW91-LDA
 Gradients option       PostSCFGGA      .... off
 Hybrid DFT is turned on
   Fraction HF Exchange ScalHFX         ....  0.250000
   Scaling of DF-GGA-X  ScalDFX         ....  0.750000
   Scaling of DF-GGA-C  ScalDFC         ....  1.000000
   Scaling of DF-LDA-C  ScalLDAC        ....  1.000000
   Perturbative correction              ....  0.000000
   NL short-range parameter             ....  6.900000


General Settings:
 Integral files         IntName         .... 1627_+
 Hartree-Fock type      HFTyp           .... RHF
 Total Charge           Charge          ....    1
 Multiplicity           Mult            ....    1
 Number of Electrons    NEL             ....   54
 Basis Dimension        Dim             ....  289
 Nuclear Repulsion      ENuc            ....    340.3763598189 Eh

 Symmetry handling      UseSym         .... ON
 Point group                           .... Cs
 Used point group                      .... Cs
 Number of irreps                      .... 2
   Irrep   A' has  176 symmetry adapted basis functions (ofs=   0)
   Irrep   A" has  113 symmetry adapted basis functions (ofs= 176)

Convergence Acceleration:
 DIIS                   CNVDIIS         .... on
   Start iteration      DIISMaxIt       ....    12
   Startup error        DIISStart       ....  0.200000
   # of expansion vecs  DIISMaxEq       ....     5
   Bias factor          DIISBfac        ....   1.050
   Max. coefficient     DIISMaxC        ....  10.000
 Newton-Raphson         CNVNR           .... off
 SOSCF                  CNVSOSCF        .... on
   Start iteration      SOSCFMaxIt      ....   150
   Startup grad/error   SOSCFStart      ....  0.003300
 Level Shifting         CNVShift        .... on
   Level shift para.    LevelShift      ....    0.2500
   Turn off err/grad.   ShiftErr        ....    0.0010
 Zerner damping         CNVZerner       .... off
 Static damping         CNVDamp         .... on
   Fraction old density DampFac         ....    0.7000
   Max. Damping (<1)    DampMax         ....    0.9800
   Min. Damping (>=0)   DampMin         ....    0.0000
   Turn off err/grad.   DampErr         ....    0.1000
 Fernandez-Rico         CNVRico         .... off

SCF Procedure:
 Maximum # iterations   MaxIter         ....   125
 SCF integral mode      SCFMode         .... Direct
   Integral package                     .... LIBINT
 Reset frequeny         DirectResetFreq ....    20
 Integral Threshold     Thresh          ....  2.500e-11 Eh
 Primitive CutOff       TCut            ....  2.500e-12 Eh

Convergence Tolerance:
 Convergence Check Mode ConvCheckMode   .... Total+1el-Energy
 Energy Change          TolE            ....  1.000e-08 Eh
 1-El. energy change                    ....  1.000e-05 Eh
 Orbital Gradient       TolG            ....  1.000e-05
 Orbital Rotation angle TolX            ....  1.000e-05
 DIIS Error             TolErr          ....  5.000e-07


Diagonalization of the overlap matrix:
Smallest eigenvalue                        ... 3.663e-05
Time for diagonalization                   ...    0.430 sec
Threshold for overlap eigenvalues          ... 1.000e-08
Number of eigenvalues below threshold      ... 0
[...]
     18       0.045287   0.038119   0.018915  -0.000996  -0.051611  -0.000000
     19       0.035749   0.026565   0.025183  -0.000512  -0.044287  -0.000000
     20      -0.000000   0.000000   0.000000  -0.000000   0.000000   0.001116
     21      -0.085550  -0.041969  -0.012330  -0.300306   0.004072  -0.000957
     22      -0.070167  -0.048154   0.009059  -0.153302   0.000941  -0.000837
     23      -0.079119  -0.044670  -0.001221   0.468492  -0.005392   0.001250
     24      -0.085550  -0.041969  -0.012330  -0.300306   0.004072   0.000957
     25      -0.070168  -0.048153   0.009059  -0.153302   0.000941   0.000837
     26       0.079119   0.044670   0.001221  -0.468492   0.005392   0.001250
     27       0.093361   0.059117  -0.011390   0.070255  -0.000465  -0.000000
     28      -0.002921  -0.001807   0.003243   0.570401  -0.013498  -0.000000
     29       0.000000  -0.000000  -0.000000   0.000000   0.000000  -0.000558
     30       0.043328  -0.035164   0.046302   0.000907  -0.001745  -0.001775
     31       0.016979  -0.250181   0.353401   0.005397  -0.034494  -0.252914
     32       0.005773  -0.118898   0.155496  -0.008715   0.060423   0.447733
     33       0.003544   0.010626  -0.013893  -0.000883   0.013648   0.104097
     34      -0.006222   0.038236  -0.059488  -0.010135   0.061581   0.470300
     35       0.027330  -0.294978   0.406357  -0.000253   0.004053   0.035372
     36      -0.000876  -0.000225  -0.021152  -0.000348  -0.000390   0.000000
     37       0.031187   0.026663  -0.015350  -0.000746   0.000881  -0.000000
     38       0.000000  -0.000000  -0.000000   0.000000  -0.000000  -0.006165
     39       0.003544   0.010626  -0.013893  -0.000883   0.013648  -0.104097
     40      -0.006222   0.038236  -0.059488  -0.010135   0.061581  -0.470300
     41      -0.027330   0.294978  -0.406357   0.000253  -0.004053   0.035372
     42       0.043328  -0.035164   0.046302   0.000907  -0.001745   0.001775
     43       0.016979  -0.250181   0.353401   0.005397  -0.034494   0.252914
     44      -0.005773   0.118898  -0.155496   0.008715  -0.060423   0.447733
     45      -0.167622   0.170906   0.104022   0.001307   0.028240  -0.003459
     46       0.330206  -0.284146  -0.243222  -0.001484  -0.037705   0.002691
     47       0.273991  -0.256092  -0.201443   0.002795   0.069919  -0.007077
     48      -0.167625   0.170909   0.104024   0.001307   0.028240   0.003459
     49       0.330206  -0.284146  -0.243222  -0.001484  -0.037705  -0.002691
     50      -0.273992   0.256093   0.201444  -0.002795  -0.069919  -0.007076
     51      -0.304669  -0.237431  -0.142534   0.005708   0.294751  -0.002825
     52      -0.258406  -0.183509  -0.133855   0.003630   0.257395  -0.001334
     53       0.313895   0.236477   0.157244   0.010503   0.573067  -0.005080
     54      -0.304669  -0.237432  -0.142534   0.005708   0.294751   0.002825
     55      -0.258407  -0.183509  -0.133855   0.003630   0.257395   0.001334
     56      -0.313895  -0.236477  -0.157244  -0.010503  -0.573068  -0.005080
                 48         49         50         51         52         53    
      0      -0.000894   0.000164  -0.000000   0.042041  -0.000000  -0.000000
      1       0.000644   0.000295  -0.000000   0.082935   0.000000   0.000000
      2       0.000000  -0.000000  -0.092350  -0.000000  -0.003153   0.000193
      3      -0.001738  -0.001017  -0.000000   0.001005   0.000000  -0.000000
      4       0.000064   0.000620  -0.000000   0.001117   0.000000   0.000000
      5       0.000000  -0.000000  -0.001286  -0.000000  -0.001116   0.000239
      6       0.008338   0.001422   0.000608  -0.000529   0.000225   0.003346
      7       0.016167   0.004003   0.000027  -0.001254  -0.000911   0.020539
      8       0.042903   0.008402   0.000300   0.000353   0.000421  -0.010344
      9       0.000567  -0.000436  -0.000000  -0.000057   0.000000  -0.000000
     10      -0.000725   0.000102   0.000000  -0.000142   0.000000   0.000000
     11      -0.000000   0.000000   0.000098   0.000000   0.000076   0.000212
     12       0.008338   0.001422  -0.000608  -0.000529  -0.000225  -0.003346
     13       0.016167   0.004003  -0.000027  -0.001254   0.000911  -0.020539
     14      -0.042903  -0.008402   0.000300  -0.000353   0.000421  -0.010344
     15      -0.008513   0.041369   0.000000  -0.000011  -0.000000  -0.000000
     16       0.010427  -0.052560  -0.000000   0.000173   0.000000   0.000000
     17      -0.000000   0.000000  -0.000674  -0.000000   0.026284   0.088452
     18      -0.005332  -0.008614   0.000000   0.000424   0.000000   0.000000
     19      -0.005397  -0.005775  -0.000000  -0.000222   0.000000   0.000000
     20       0.000000  -0.000000   0.003512   0.000000  -0.092442   0.023146
     21       0.007241   0.000034  -0.379632  -0.209458  -0.014547   0.000941
     22       0.002671  -0.000337  -0.187181  -0.090515  -0.005646   0.000288
     23      -0.009729   0.000504   0.561933   0.335089   0.019938  -0.001238
     24       0.007241   0.000034   0.379632  -0.209458   0.014547  -0.000941
     25       0.002671  -0.000337   0.187181  -0.090515   0.005646  -0.000288
     26       0.009729  -0.000504   0.561933  -0.335089   0.019938  -0.001238
     27      -0.000354   0.000084  -0.000000  -0.086247  -0.000000  -0.000000
     28      -0.014914  -0.004064  -0.000000  -0.809211  -0.000000   0.000000
     29       0.000000  -0.000000  -0.018678  -0.000000   0.000137   0.000079
     30       0.000270   0.001122   0.000742   0.000757   0.001424   0.001229
     31       0.252698   0.046816   0.000277   0.003425   0.002660  -0.074589
     32      -0.450971  -0.086134  -0.000037  -0.006553  -0.002846   0.135422
     33      -0.097083  -0.019763  -0.000546   0.000731   0.002325  -0.039536
     34      -0.439582  -0.087157  -0.002476   0.010596   0.009461  -0.174800
     35      -0.032714  -0.007143  -0.000341   0.000350   0.001457  -0.017672
     36       0.007023   0.008663   0.000000  -0.000008  -0.000000  -0.000000
     37       0.005330  -0.004631   0.000000  -0.000094   0.000000   0.000000
     38      -0.000000   0.000000  -0.000246   0.000000  -0.000106   0.001051
     39      -0.097083  -0.019763   0.000546   0.000731  -0.002325   0.039536
     40      -0.439583  -0.087157   0.002476   0.010596  -0.009461   0.174800
     41       0.032714   0.007142  -0.000341  -0.000350   0.001457  -0.017672
     42       0.000270   0.001122  -0.000742   0.000757  -0.001424  -0.001229
     43       0.252698   0.046816  -0.000277   0.003425  -0.002660   0.074589
     44       0.450971   0.086134  -0.000037   0.006553  -0.002846   0.135422
     45       0.049117  -0.232676   0.002032   0.000346  -0.063913  -0.228210
     46      -0.062148   0.301630  -0.002517  -0.000942   0.084562   0.288624
     47       0.120781  -0.569829   0.004504   0.001525  -0.153165  -0.522984
     48       0.049117  -0.232674  -0.002032   0.000346   0.063914   0.228212
     49      -0.062147   0.301628   0.002517  -0.000942  -0.084563  -0.288627
     50      -0.120780   0.569823   0.004504  -0.001525  -0.153167  -0.522989
     51       0.031998   0.042929  -0.011382  -0.001468   0.299025  -0.078494
     52       0.029365   0.037085  -0.008022  -0.002459   0.263609  -0.065942
     53       0.060781   0.082918  -0.019893  -0.003754   0.548651  -0.139761
     54       0.031999   0.042928   0.011382  -0.001468  -0.299026   0.078494
     55       0.029365   0.037085   0.008022  -0.002459  -0.263609   0.065942
     56      -0.060781  -0.082917  -0.019893   0.003754   0.548651  -0.139761
                  54         55         56    
      0       0.000000  -0.000632  -0.000252
      1      -0.000000  -0.001374   0.000103
      2       0.000223  -0.000000  -0.000000
      3       0.000000  -0.000994  -0.000643
      4      -0.000000  -0.001090   0.000029
      5      -0.000179  -0.000000  -0.000000
      6       0.008850  -0.009494  -0.000302
      7       0.058185  -0.062158   0.000421
      8      -0.029949   0.030601   0.001064
      9       0.000000   0.000845   0.073000
     10      -0.000000  -0.000033   0.012651
     11       0.000208   0.000000   0.000000
     12      -0.008850  -0.009494  -0.000302
     13      -0.058185  -0.062158   0.000421
     14      -0.029949  -0.030601  -0.001064
     15       0.000000  -0.000172   0.000058
     16      -0.000000   0.000337  -0.000821
     17      -0.031807  -0.000000  -0.000000
     18      -0.000000   0.000429  -0.000679
     19      -0.000000   0.000715  -0.000448
     20      -0.009843  -0.000000  -0.000000
     21      -0.000312   0.003840   0.000479
     22       0.000872   0.001579  -0.000049
     23      -0.000692  -0.005314  -0.000109
     24       0.000312   0.003840   0.000479
     25      -0.000872   0.001579  -0.000049
     26      -0.000692   0.005314   0.000109
     27       0.000000  -0.000283   0.000185
     28      -0.000000   0.016110  -0.000608
     29       0.000667  -0.000000  -0.000000
     30       0.003767  -0.004552  -0.001122
     31      -0.214577   0.219358   0.001584
     32       0.401632  -0.404808  -0.001282
     33      -0.107278   0.119053  -0.001271
     34      -0.466967   0.515966  -0.005712
     35      -0.041942   0.049948  -0.001775
     36       0.000000  -0.003325  -0.982659
     37      -0.000000  -0.001524  -0.169597
     38       0.002021   0.000000   0.000000
     39       0.107278   0.119053  -0.001271
     40       0.466967   0.515966  -0.005712
     41      -0.041942  -0.049948   0.001775
     42      -0.003767  -0.004552  -0.001122
     43       0.214577   0.219358   0.001584
     44       0.401632   0.404809   0.001282
     45       0.081119  -0.001266  -0.001464
     46      -0.101763   0.003966   0.002682
     47       0.185071  -0.002520  -0.003041
     48      -0.081119  -0.001266  -0.001464
     49       0.101764   0.003966   0.002682
     50       0.185073   0.002521   0.003041
     51       0.032819   0.000151   0.000051
     52       0.027814   0.001138   0.000457
     53       0.057892  -0.001464   0.000078
     54      -0.032819   0.000150   0.000051
     55      -0.027814   0.001138   0.000457
     56       0.057892   0.001464  -0.000078


-----------
IR SPECTRUM
-----------

 Mode    freq (cm**-1)   T**2         TX         TY         TZ
-------------------------------------------------------------------
   6:       213.74    0.170657  (  0.000000   0.000000   0.413106)
   7:       255.49    0.142338  (  0.000000   0.000001  -0.377277)
   8:       295.78    0.275096  ( -0.160420   0.499360   0.000003)
   9:       357.17    0.336988  (  0.000002  -0.000003   0.580507)
  10:       448.62    0.140826  ( -0.000002   0.000001   0.375267)
  11:       532.38    0.051029  ( -0.175296   0.142479  -0.000003)
  12:       598.10    0.196863  ( -0.042587   0.441644  -0.000000)
  13:       701.35    0.816252  ( -0.870803   0.240738   0.000007)
  14:       829.06    1.445861  (  0.000007   0.000001  -1.202440)
  15:       848.44    1.205147  (  0.000003   0.000021   1.097792)
  16:       853.40    2.456961  (  0.777701  -1.360934   0.000002)
  17:       877.14    2.363641  (  0.000002   0.000001  -1.537414)
  18:       886.43    3.561189  ( -1.372999  -1.294628   0.000009)
  19:       945.13    0.010448  ( -0.080149   0.063437   0.000004)
  20:       958.11    2.352750  (  1.380732  -0.668078  -0.000009)
  21:       965.15    0.130459  (  0.000016  -0.000011   0.361191)
  22:      1006.08    3.731028  (  0.275006  -1.911910   0.000009)
  23:      1032.10    2.449684  (  0.000006  -0.000018  -1.565147)
  24:      1041.64    1.305425  ( -1.123615  -0.207159  -0.000014)
  25:      1102.28    0.153163  (  0.000003   0.000011   0.391361)
  26:      1168.77    3.265821  (  0.091726   1.804829   0.000036)
  27:      1180.34   13.274455  ( -0.000007   0.000015  -3.643412)
  28:      1192.11    8.716202  ( -0.000004   0.000009  -2.952321)
  29:      1204.81    0.557935  (  0.722127   0.190967  -0.000097)
  30:      1246.78    0.185996  (  0.000018  -0.000002   0.431273)
  31:      1265.53    0.893027  ( -0.000180   0.000122  -0.945001)
  32:      1266.05    0.396097  (  0.516986  -0.358919  -0.000295)
  33:      1282.25   11.285124  ( -0.621561  -3.301331   0.000017)
  34:      1326.02   23.066566  (  0.005387  -0.014667   4.802741)
  35:      1326.09   14.586039  ( -1.310740   3.587145   0.019693)
  36:      1379.83    9.866819  ( -1.823051  -2.557988   0.000050)
  37:      1403.22   12.760372  ( -2.238336   2.783923  -0.000004)
  38:      1434.54   18.715210  (  3.934119  -1.799420   0.000000)
  39:      1485.19   13.217389  (  0.000000  -0.000006   3.635573)
  40:      1485.98    6.882183  (  0.703834   2.527212   0.000007)
  41:      1490.32   12.975804  (  0.000000   0.000000  -3.602194)
  42:      1499.32    6.956181  ( -2.598628  -0.450904  -0.000001)
  43:      1503.49   13.236844  ( -1.109910  -3.464815   0.000000)
  44:      1539.57    5.325469  (  2.286900  -0.309126  -0.000000)
  45:      3062.52    2.316081  (  1.170427  -0.972718   0.000000)
  46:      3104.30    3.748871  ( -1.727547  -0.874329   0.000000)
  47:      3107.41    3.668400  (  0.000000  -0.000001  -1.915307)
  48:      3111.62    0.517340  ( -0.175925   0.697417  -0.000000)
  49:      3118.70    1.814136  (  0.957600  -0.947174   0.000000)
  50:      3139.82    2.229634  (  0.000000  -0.000000  -1.493196)
  51:      3142.75    4.329036  (  0.553410   2.005685  -0.000000)
  52:      3155.10    1.048774  ( -0.000002   0.000002  -1.024097)
  53:      3181.38    0.003620  ( -0.000004   0.000003   0.060167)
  54:      3187.80    1.697706  (  0.000001  -0.000001  -1.302961)
  55:      3190.24    0.529959  ( -0.010727  -0.727904  -0.000000)
  56:      3509.12   66.714198  ( -8.073431  -1.238511   0.000000)

The first frequency considered to be a vibration is 6
The total number of vibrations considered is 51


--------------------------
THERMOCHEMISTRY AT 298.15K
--------------------------

Temperature         ... 298.15 K
Pressure            ... 1.00 atm
Total Mass          ... 98.17 AMU

Throughout the following assumptions are being made:
  (1) The electronic state is orbitally nondegenerate
  (2) There are no thermally accessible electronically excited states
  (3) Hindered rotations indicated by low frequency modes) are not
      treated as such but are treated as vibrations and this may
      case some error
  (4) All equations used are the standard statistical mechanics
      equations for an ideal gas
  (5) All vibrations are strinctly harmonic


------------
INNER ENERGY
------------

The inner energy is: U= E(el) + E(ZPE) + E(vib) + E(rot) + E(trans)
    E(el)   - is the total energy from the electronic structure calculation
              = E(kin-el) + E(nuc-el) + E(el-el) + E(nuc-nuc)
    E(ZPE)  - the the zero temperature vibrational energy from the frequency calculation
    E(vib)  - the the finite temperature correction to E(ZPE) due to population
              of excietd vibrational states
    E(rot)  - is the rotational thermal energy
    E(trans)- is the translational thermal energy

Summary of contributions to the inner energy U:
Electronic energy                ...   -290.09986273 Eh
Zero point energy                ...      0.17869623 Eh     112.13 kcal/mol
Thermal vibrational correction   ...      0.00330220 Eh       2.07 kcal/mol
Thermal rotational correction    ...      0.00141627 Eh       0.89 kcal/mol
Thermal translational correction ...      0.00141627 Eh       0.89 kcal/mol
-----------------------------------------------------------------------
Total thermal energy                   -289.91503176 Eh


Summary of corrections to the electronic energy:
(perhaps to be used in another calculation)
Total thermal correction                  0.00613474 Eh       3.85 kcal/mol
Non-thermal (ZPE) correction              0.17869623 Eh     112.13 kcal/mol
-----------------------------------------------------------------------
Total correction                          0.18483097 Eh     115.98 kcal/mol


--------
ENTHALPY
--------

The enthalpy is H = U + kB*T
                kB is Boltzmann's constant
Total free energy                 ...   -289.91503176 Eh 
Thermal Enthalpy correction       ...      0.00094421 Eh       0.59 kcal/mol
-----------------------------------------------------------------------
Total Enthalpy                    ...   -289.91408755 Eh


-------
ENTROPY
-------

The entropy contributions are T*S = T*(S(el)+S(vib)+S(rot)+S(trans)
     S(el)   - electronic entropy
     S(vib)  - vibrational entropy
     S(rot)  - rotational entropy
     S(trans)- translational entropy
The entropies will be listed as mutliplied by the temperature to get
units of energy

Electronic entropy                ...      0.00000000 Eh      0.00 kcal/mol
Vibrational entropy               ...      0.00492543 Eh      3.09 kcal/mol
Rotational entropy                ...      0.01170968 Eh      7.35 kcal/mol
Translational entropy             ...      0.01884507 Eh     11.83 kcal/mol
-----------------------------------------------------------------------
Final entropy term                ...      0.03548018 Eh     22.26 kcal/mol


CAUTION: The rotational entropy is not quite correctly treated here
         because it includes a symmetry number that is not yet correctly
         implemented in ORCA!
For a nonlinear molecule the correct rotational entropy is:
    S(rot) = R*(ln(qrot/sn)+1.5)
    R    = 8.31441 J/mol/K = 1.987191683e-3 kcal/mol/K
    qrot = 162845.8153900
    sn is the rotational symmetry number. We have assumed 3 here
       if it is different for your molecule then you should correct
       the printed rotational entropy by manually evaluating the equation
       as given above

For convenience we print out the resulting values for sn=1 - 12:
 sn= 1  qrot/sn=  162845.8154 T*S(rot)=     8.00 kcal/mol T*S(tot)=    22.92 kcal/mol
 sn= 2  qrot/sn=   81422.9077 T*S(rot)=     7.59 kcal/mol T*S(tot)=    22.50 kcal/mol
 sn= 3  qrot/sn=   54281.9385 T*S(rot)=     7.35 kcal/mol T*S(tot)=    22.26 kcal/mol
 sn= 4  qrot/sn=   40711.4538 T*S(rot)=     7.18 kcal/mol T*S(tot)=    22.09 kcal/mol
 sn= 5  qrot/sn=   32569.1631 T*S(rot)=     7.05 kcal/mol T*S(tot)=    21.96 kcal/mol
 sn= 6  qrot/sn=   27140.9692 T*S(rot)=     6.94 kcal/mol T*S(tot)=    21.85 kcal/mol
 sn= 7  qrot/sn=   23263.6879 T*S(rot)=     6.85 kcal/mol T*S(tot)=    21.76 kcal/mol
 sn= 8  qrot/sn=   20355.7269 T*S(rot)=     6.77 kcal/mol T*S(tot)=    21.68 kcal/mol
 sn= 9  qrot/sn=   18093.9795 T*S(rot)=     6.70 kcal/mol T*S(tot)=    21.61 kcal/mol
 sn=10  qrot/sn=   16284.5815 T*S(rot)=     6.63 kcal/mol T*S(tot)=    21.55 kcal/mol
 sn=11  qrot/sn=   14804.1650 T*S(rot)=     6.58 kcal/mol T*S(tot)=    21.49 kcal/mol
 sn=12  qrot/sn=   13570.4846 T*S(rot)=     6.53 kcal/mol T*S(tot)=    21.44 kcal/mol


-------------------
GIBBS FREE ENTHALPY
-------------------

The Gibbs free enthalpy is G = H - T*S

Total enthalpy                    ...   -289.91408755 Eh 
Total entropy correction          ...     -0.03548018 Eh    -22.26 kcal/mol
-----------------------------------------------------------------------
Final Gibbs free enthalpy         ...   -289.94956773 Eh

For completeness - the Gibbs free enthalpy minus the electronic energy
G-E(el)                           ...      0.15029500 Eh     94.31 kcal/mol


Timings for individual modules:

Sum of individual times         ...     3193.588 sec (=  53.226 min)
GTO integral calculation        ...        6.843 sec (=   0.114 min)   0.2 %
SCF iterations                  ...      330.965 sec (=   5.516 min)  10.4 %
SCF Gradient evaluation         ...      127.951 sec (=   2.133 min)   4.0 %
Geometry relaxation             ...        0.200 sec (=   0.003 min)   0.0 %
Analytical frequency calculation...     2727.629 sec (=  45.460 min)  85.4 %
                             ****ORCA TERMINATED NORMALLY****
TOTAL RUN TIME: 0 days 0 hours 53 minutes 15 seconds 287 msec
