
                                 *****************
                                 * O   R   C   A *
                                 *****************

           --- An Ab Initio, DFT and Semiempirical electronic structure package ---

                  #######################################################
                  #                        -***-                        #
                  #  Department of molecular theory and spectroscopy    #
                  #              Directorship: Frank Neese              #
                  # Max Planck Institute for Chemical Energy Conversion #
                  #                  D-45470 Muelheim/Ruhr              #
                  #                       Germany                       #
                  #                                                     #
                  #                  All rights reserved                #
                  #                        -***-                        #
                  #######################################################


                         Program Version 3.0.3 - RELEASE   -


 With contributions from (in alphabetic order):
   Ute Becker             : Parallelization
   Dmytro Bykov           : SCF Hessian
   Dmitry Ganyushin       : Spin-Orbit,Spin-Spin,Magnetic field MRCI
   Andreas Hansen         : Spin unrestricted coupled pair/coupled cluster methods
   Dimitrios Liakos       : Extrapolation schemes; parallel MDCI
   Robert Izsak           : Overlap fitted RIJCOSX, COSX-SCS-MP3
   Christian Kollmar      : KDIIS, OOCD, Brueckner-CCSD(T), CCSD density
   Simone Kossmann        : Meta GGA functionals, TD-DFT gradient, OOMP2, MP2 Hessian
   Taras Petrenko         : DFT Hessian,TD-DFT gradient, ASA and ECA modules, normal mode analysis, Resonance Raman, ABS, FL, XAS/XES, NRVS
   Christoph Reimann      : Effective Core Potentials
   Michael Roemelt        : Restricted open shell CIS
   Christoph Riplinger    : Improved optimizer, TS searches, QM/MM, DLPNO-CCSD
   Barbara Sandhoefer     : DKH picture change effects
   Igor Schapiro          : Molecular dynamics
   Kantharuban Sivalingam : CASSCF convergence, NEVPT2
   Boris Wezisla          : Elementary symmetry handling
   Frank Wennmohs         : Technical directorship


 We gratefully acknowledge several colleagues who have allowed us to
 interface, adapt or use parts of their codes:
   Stefan Grimme, W. Hujo, H. Kruse, T. Risthaus : VdW corrections, initial TS optimization,
                                                   DFT functionals, gCP
   Ed Valeev                                     : LibInt (2-el integral package), F12 methods
   Garnet Chan, S. Sharma, R. Olivares           : DMRG
   Ulf Ekstrom                                   : XCFun DFT Library
   Mihaly Kallay                                 : mrcc  (arbitrary order and MRCC methods)
   Andreas Klamt, Michael Diedenhofen            : otool_cosmo (COSMO solvation model)
   Frank Weinhold                                : gennbo (NPA and NBO analysis)
   Christopher J. Cramer and Donald G. Truhlar   : smd solvation model


 Your calculation uses the libint2 library for the computation of 2-el integrals
 For citations please refer to: http://libint.valeyev.net

 This ORCA versions uses:
   CBLAS   interface :  Fast vector & matrix operations
   LAPACKE interface :  Fast linear algebra routines
   SCALAPACK package :  Parallel linear algebra routines


Your calculation utilizes the basis: Ahlrichs-TZV
Cite in your paper:
H - Kr: A. Schaefer, H. Horn and R. Ahlrichs, J. Chem. Phys. 97, 2571 (1992).

The def2-TZV basis will be loaded
Cite in your paper:
 	F. Weigend, R. Ahlrichs, Phys. Chem. Chem. Phys. 2005, 7, 3297.

================================================================================
                                        WARNINGS
                       Please study these warnings very carefully!
================================================================================
Now building the actual basis set
WARNING: Geometry optimizations can change the point-group symmetry!

WARNING: Geometry Optimization
  ===> : Switching off AutoStart
         For restart on a previous wavefunction, please use MOREAD


INFO   : the flag for use of LIBINT has been found!

================================================================================
                                       INPUT FILE
================================================================================
NAME = 1661_+.inp
|  1> ! NORI PBE0 def2-TZVP UseSym TightOPT Freq TightSCF Grid3 FinalGrid5 XYZFile
|  2> % pal
|  3>     nprocs 8
|  4> end
|  5> %method
|  6>     SymThresh 5.0e-2
|  7> end
|  8> % geom 
|  9>     MaxIter 10
| 10> end 
| 11> % maxcore 2000
| 12> % output
| 13>     printlevel mini
| 14>     print[ P_Basis ] 0
| 15>     print[ P_SCFInfo ] 1
| 16>     print[ P_SCFIterInfo ] 1
| 17>     print[ P_OrbEn ] 0
| 18>     print[ P_Cartesian ] 0
| 19> end
| 20> % elprop
| 21>     Dipole false
| 22> end
| 23> *xyz 1 1
| 24>  C        0.9941299740     0.0677806695     0.4215315229 
| 25>  C        2.4462402837    -0.0746129869     0.0267774178 
| 26>  C        2.8019718943    -1.4622916342    -0.5151682462 
| 27>  C        2.5797992306    -1.3893424583    -2.0163901764 
| 28>  C        3.6786657827    -0.7750987938    -2.8254624332 
| 29>  C        2.5163512979     0.0545464508    -2.4040141415 
| 30>  N        2.7188787852     0.8484416461    -1.1626227194 
| 31>  H        0.7509377998     1.0887066437     0.7266322804 
| 32>  H        0.7913156993    -0.5824006229     1.2730024253 
| 33>  H        0.3280675715    -0.2312785350    -0.3921275321 
| 34>  H        3.1022212201     0.2491760731     0.8366897215 
| 35>  H        3.8330110259    -1.7315886988    -0.2785454669 
| 36>  H        2.1589600962    -2.2106284532    -0.0532054802 
| 37>  H        1.9150008505    -2.0995687688    -2.4890771423 
| 38>  H        4.6400522528    -0.6120183457    -2.3482432614 
| 39>  H        3.7387941426    -1.0116534250    -3.8799933980 
| 40>  H        1.8183667326     0.4890593552    -3.1057647264 
| 41>  H        2.0867519322     1.6487584921    -1.1361112450 
| 42>  H        3.6678534281     1.2228833921    -1.1246973990 
| 43> *
| 44> 
| 45>                          ****END OF INPUT****
================================================================================

The point group is C1 - hence turning off symmetry
If this is a round-off problem, please increase the symmetry
        detection tolerance (%method SymThresh)


                       *****************************
                       * Geometry Optimization Run *
                       *****************************

Geometry optimization settings:
Update method            Update   .... BFGS
Choice of coordinates    CoordSys .... Redundant Internals
Initial Hessian          InHess   .... Almoef's Model

Convergence Tolerances:
Energy Change            TolE     ....  1.0000e-06 Eh
Max. Gradient            TolMAXG  ....  1.0000e-04 Eh/bohr
RMS Gradient             TolRMSG  ....  3.0000e-05 Eh/bohr
Max. Displacement        TolMAXD  ....  1.0000e-03 bohr
RMS Displacement         TolRMSD  ....  6.0000e-04 bohr

------------------------------------------------------------------------------
                        ORCA OPTIMIZATION COORDINATE SETUP
------------------------------------------------------------------------------

The optimization will be done in new redundant internal coordinates
Making redundant internal coordinates   ...  (new redundants) done
Evaluating the initial hessian          ...  (Almloef) done
Evaluating the coordinates              ...  done
Calculating the B-matrix                .... done
Calculating the G-matrix                .... done
Diagonalizing the G-matrix              .... done
The first mode is                       ....   80
The number of degrees of freedom        ....   51

    -----------------------------------------------------------------
                    Redundant Internal Coordinates


    -----------------------------------------------------------------
         Definition                    Initial Value    Approx d2E/dq
    -----------------------------------------------------------------
      1. B(C   1,C   0)                  1.5115         0.399798   
      2. B(C   2,C   1)                  1.5316         0.371339   
      3. B(C   3,C   2)                  1.5193         0.388515   
      4. B(C   4,C   3)                  1.4965         0.422556   
      5. B(C   5,C   3)                  1.4964         0.422715   
      6. B(C   5,C   4)                  1.4889         0.434416   
      7. B(N   6,C   1)                  1.5300         0.334537   
      8. B(N   6,C   5)                  1.4874         0.391282   
      9. B(H   7,C   0)                  1.0929         0.356231   
     10. B(H   8,C   0)                  1.0904         0.359632   
     11. B(H   9,C   0)                  1.0932         0.355873   
     12. B(H  10,C   1)                  1.0914         0.358280   
     13. B(H  11,C   2)                  1.0916         0.358012   
     14. B(H  12,C   2)                  1.0894         0.360840   
     15. B(H  13,C   3)                  1.0816         0.371415   
     16. B(H  14,C   4)                  1.0856         0.365925   
     17. B(H  15,C   4)                  1.0824         0.370283   
     18. B(H  16,C   5)                  1.0809         0.372283   
     19. B(H  17,N   6)                  1.0202         0.416804   
     20. B(H  18,N   6)                  1.0209         0.415753   
     21. A(H   8,C   0,H   9)          107.7440         0.290242   
     22. A(C   1,C   0,H   9)          111.4180         0.327322   
     23. A(H   7,C   0,H   9)          109.1314         0.289809   
     24. A(H   7,C   0,H   8)          107.3151         0.290287   
     25. A(C   1,C   0,H   7)          112.0037         0.327377   
     26. A(C   1,C   0,H   8)          109.0543         0.327890   
     27. A(N   6,C   1,H  10)          106.9057         0.316364   
     28. A(C   2,C   1,H  10)          113.0651         0.323730   
     29. A(C   0,C   1,N   6)          108.5039         0.358487   
     30. A(C   2,C   1,N   6)          103.3053         0.354021   
     31. A(C   0,C   1,C   2)          113.6335         0.367218   
     32. A(C   0,C   1,H  10)          110.8346         0.327686   
     33. A(H  11,C   2,H  12)          107.2239         0.290668   
     34. A(C   1,C   2,H  12)          109.5858         0.324109   
     35. A(C   3,C   2,H  11)          111.3555         0.326104   
     36. A(C   1,C   2,H  11)          111.4808         0.323690   
     37. A(C   1,C   2,C   3)          105.7925         0.365422   
     38. A(C   3,C   2,H  12)          111.4480         0.326527   
     39. A(C   4,C   3,H  13)          118.9860         0.332674   
     40. A(C   2,C   3,H  13)          119.3524         0.328085   
     41. A(C   2,C   3,C   4)          116.5221         0.373625   
     42. A(C   4,C   3,C   5)           59.6694         0.379112   
     43. A(C   2,C   3,C   5)          107.9682         0.373649   
     44. A(C   5,C   3,H  13)          119.6274         0.332694   
     45. A(C   5,C   4,H  14)          118.8927         0.333380   
     46. A(C   3,C   4,H  14)          118.3118         0.331854   
     47. A(C   3,C   4,C   5)           60.1619         0.380910   
     48. A(H  14,C   4,H  15)          114.3237         0.292856   
     49. A(C   5,C   4,H  15)          116.1616         0.334036   
     50. A(C   3,C   4,H  15)          118.5430         0.332505   
     51. A(C   3,C   5,C   4)           60.1687         0.380935   
     52. A(C   4,C   5,N   6)          115.2999         0.373513   
     53. A(C   3,C   5,N   6)          107.0412         0.371761   
     54. A(N   6,C   5,H  16)          114.5318         0.326624   
     55. A(C   4,C   5,H  16)          122.9767         0.334335   
     56. A(C   3,C   5,H  16)          125.6923         0.332823   
     57. A(C   1,N   6,C   5)          107.6095         0.354971   
     58. A(H  17,N   6,H  18)          106.6948         0.299535   
     59. A(C   5,N   6,H  18)          110.6922         0.329800   
     60. A(C   1,N   6,H  18)          110.9796         0.321410   
     61. A(C   5,N   6,H  17)          110.8568         0.329937   
     62. A(C   1,N   6,H  17)          110.0386         0.321543   
     63. D(H  10,C   1,C   0,H   9)    178.6223         0.012682   
     64. D(H  10,C   1,C   0,H   7)     56.0599         0.012682   
     65. D(C   2,C   1,C   0,H   9)    -52.7624         0.012682   
     66. D(N   6,C   1,C   0,H   8)   -179.6674         0.012682   
     67. D(C   2,C   1,C   0,H   8)     66.0427         0.012682   
     68. D(N   6,C   1,C   0,H   9)     61.5274         0.012682   
     69. D(N   6,C   1,C   0,H   7)    -61.0350         0.012682   
     70. D(H  10,C   1,C   0,H   8)    -62.5726         0.012682   
     71. D(C   2,C   1,C   0,H   7)   -175.3248         0.012682   
     72. D(H  11,C   2,C   1,N   6)     94.1009         0.011018   
     73. D(C   3,C   2,C   1,H  10)   -142.2775         0.011018   
     74. D(H  11,C   2,C   1,H  10)    -21.0802         0.011018   
     75. D(H  12,C   2,C   1,H  10)     97.4596         0.011018   
     76. D(H  12,C   2,C   1,N   6)   -147.3593         0.011018   
     77. D(H  12,C   2,C   1,C   0)    -30.0067         0.011018   
     78. D(C   3,C   2,C   1,C   0)     90.2562         0.011018   
     79. D(C   3,C   2,C   1,N   6)    -27.0964         0.011018   
     80. D(H  11,C   2,C   1,C   0)   -148.5465         0.011018   
     81. D(H  13,C   3,C   2,H  12)     -5.3254         0.012004   
     82. D(H  13,C   3,C   2,H  11)    114.3576         0.012004   
     83. D(C   5,C   3,C   2,H  12)    135.8102         0.012004   
     84. D(C   5,C   3,C   2,C   1)     16.7715         0.012004   
     85. D(C   4,C   3,C   2,H  12)   -159.7508         0.012004   
     86. D(C   4,C   3,C   2,H  11)    -40.0678         0.012004   
     87. D(C   5,C   3,C   2,H  11)   -104.5069         0.012004   
     88. D(C   4,C   3,C   2,C   1)     81.2105         0.012004   
     89. D(H  13,C   3,C   2,C   1)   -124.3641         0.012004   
     90. D(H  14,C   4,C   3,C   2)     12.7178         0.014124   
     91. D(C   5,C   4,C   3,C   2)    -96.1688         0.014124   
     92. D(C   5,C   4,C   3,H  13)    109.3081         0.014124   
     93. D(H  14,C   4,C   3,C   5)    108.8866         0.014124   
     94. D(H  15,C   4,C   3,H  13)      3.8449         0.014124   
     95. D(H  15,C   4,C   3,C   5)   -105.4632         0.014124   
     96. D(H  15,C   4,C   3,C   2)    158.3679         0.014124   
     97. D(H  14,C   4,C   3,H  13)   -141.8053         0.014124   
     98. D(H  16,C   5,C   4,H  15)     -6.0584         0.014915   
     99. D(H  16,C   5,C   4,H  14)    136.6195         0.014915   
    100. D(H  16,C   5,C   4,C   3)   -115.4455         0.014915   
    101. D(N   6,C   5,C   4,H  15)   -154.7237         0.014915   
    102. D(N   6,C   5,C   4,C   3)     95.8892         0.014915   
    103. D(C   3,C   5,C   4,H  15)    109.3871         0.014915   
    104. D(C   3,C   5,C   4,H  14)   -107.9350         0.014915   
    105. D(H  16,C   5,C   3,H  13)      2.8888         0.014134   
    106. D(H  16,C   5,C   3,C   4)    111.1381         0.014134   
    107. D(H  16,C   5,C   3,C   2)   -138.1211         0.014134   
    108. D(N   6,C   5,C   4,H  14)    -12.0458         0.014915   
    109. D(N   6,C   5,C   3,H  13)    141.9049         0.014134   
    110. D(N   6,C   5,C   3,C   4)   -109.8458         0.014134   
    111. D(N   6,C   5,C   3,C   2)      0.8950         0.014134   
    112. D(C   4,C   5,C   3,H  13)   -108.2492         0.014134   
    113. D(C   4,C   5,C   3,C   2)    110.7408         0.014134   
    114. D(C   1,N   6,C   5,C   4)    -82.9137         0.014002   
    115. D(C   1,N   6,C   5,C   3)    -18.4194         0.014002   
    116. D(H  18,N   6,C   1,H  10)     26.5394         0.010373   
    117. D(H  18,N   6,C   1,C   2)    -92.9750         0.010373   
    118. D(H  18,N   6,C   1,C   0)    146.1247         0.010373   
    119. D(H  17,N   6,C   1,H  10)    -91.3234         0.010373   
    120. D(H  17,N   6,C   1,C   2)    149.1622         0.010373   
    121. D(H  17,N   6,C   1,C   0)     28.2619         0.010373   
    122. D(C   5,N   6,C   1,H  10)    147.7878         0.010373   
    123. D(C   5,N   6,C   1,C   2)     28.2734         0.010373   
    124. D(C   1,N   6,C   5,H  16)    125.7418         0.014002   
    125. D(C   5,N   6,C   1,C   0)    -92.6269         0.010373   
    126. D(H  18,N   6,C   5,H  16)   -112.8302         0.014002   
    127. D(H  18,N   6,C   5,C   4)     38.5143         0.014002   
    128. D(H  18,N   6,C   5,C   3)    103.0086         0.014002   
    129. D(H  17,N   6,C   5,H  16)      5.3681         0.014002   
    130. D(H  17,N   6,C   5,C   4)    156.7127         0.014002   
    131. D(H  17,N   6,C   5,C   3)   -138.7930         0.014002   
    -----------------------------------------------------------------

Number of atoms                         .... 19
Number of degrees of freedom            .... 131

         *************************************************************
         *                GEOMETRY OPTIMIZATION CYCLE   1            *
         *************************************************************


           ************************************************************
           *        Program running with 8 parallel MPI-processes     *
           *              working on a common directory               *
           ************************************************************
           ************************************************************
           *              Shut down parallel processing               *
           ************************************************************


           ************************************************************
           *        Program running with 8 parallel MPI-processes     *
           *              working on a common directory               *
           ************************************************************
------------
SCF SETTINGS
------------
Hamiltonian:
 Density Functional     Method          .... DFT(GTOs)
 Exchange Functional    Exchange        .... PBE
   PBE kappa parameter  XKappa          ....  0.804000
 Correlation Functional Correlation     .... PBE
 LDA part of GGA corr.  LDAOpt          .... PW91-LDA
 Gradients option       PostSCFGGA      .... off
 Hybrid DFT is turned on
   Fraction HF Exchange ScalHFX         ....  0.250000
   Scaling of DF-GGA-X  ScalDFX         ....  0.750000
   Scaling of DF-GGA-C  ScalDFC         ....  1.000000
   Scaling of DF-LDA-C  ScalLDAC        ....  1.000000
   Perturbative correction              ....  0.000000
   NL short-range parameter             ....  6.900000


General Settings:
 Integral files         IntName         .... 1661_+
 Hartree-Fock type      HFTyp           .... RHF
 Total Charge           Charge          ....    1
 Multiplicity           Mult            ....    1
 Number of Electrons    NEL             ....   54
 Basis Dimension        Dim             ....  289
 Nuclear Repulsion      ENuc            ....    332.8623807164 Eh

Convergence Acceleration:
 DIIS                   CNVDIIS         .... on
   Start iteration      DIISMaxIt       ....    12
   Startup error        DIISStart       ....  0.200000
   # of expansion vecs  DIISMaxEq       ....     5
   Bias factor          DIISBfac        ....   1.050
   Max. coefficient     DIISMaxC        ....  10.000
 Newton-Raphson         CNVNR           .... off
 SOSCF                  CNVSOSCF        .... on
   Start iteration      SOSCFMaxIt      ....   150
   Startup grad/error   SOSCFStart      ....  0.003300
 Level Shifting         CNVShift        .... on
   Level shift para.    LevelShift      ....    0.2500
   Turn off err/grad.   ShiftErr        ....    0.0010
 Zerner damping         CNVZerner       .... off
 Static damping         CNVDamp         .... on
   Fraction old density DampFac         ....    0.7000
   Max. Damping (<1)    DampMax         ....    0.9800
   Min. Damping (>=0)   DampMin         ....    0.0000
   Turn off err/grad.   DampErr         ....    0.1000
 Fernandez-Rico         CNVRico         .... off

SCF Procedure:
 Maximum # iterations   MaxIter         ....   125
 SCF integral mode      SCFMode         .... Direct
   Integral package                     .... LIBINT
 Reset frequeny         DirectResetFreq ....    20
 Integral Threshold     Thresh          ....  2.500e-11 Eh
 Primitive CutOff       TCut            ....  2.500e-12 Eh

Convergence Tolerance:
 Convergence Check Mode ConvCheckMode   .... Total+1el-Energy
 Energy Change          TolE            ....  1.000e-08 Eh
 1-El. energy change                    ....  1.000e-05 Eh
 Orbital Gradient       TolG            ....  1.000e-05
 Orbital Rotation angle TolX            ....  1.000e-05
 DIIS Error             TolErr          ....  5.000e-07


Diagonalization of the overlap matrix:
Smallest eigenvalue                        ... 8.702e-05
Time for diagonalization                   ...    0.830 sec
Threshold for overlap eigenvalues          ... 1.000e-08
Number of eigenvalues below threshold      ... 0
Time for construction of square roots      ...    0.034 sec
Total time needed                          ...    0.864 sec

-------------------
DFT GRID GENERATION
-------------------

General Integration Accuracy     IntAcc      ...  4.340
Radial Grid Type                 RadialGrid  ... Gauss-Chebyshev
Angular Grid (max. acc.)         AngularGrid ... Lebedev-194
Angular grid pruning method      GridPruning ... 3 (G Style)
Weight generation scheme         WeightScheme... Becke
Basis function cutoff            BFCut       ...    1.0000e-11
Integration weight cutoff        WCut        ...    1.0000e-14
Grids for H and He will be reduced by one unit

# of grid points (after initial pruning)     ...  41338 (   0.0 sec)
# of grid points (after weights+screening)   ...  37365 (   0.2 sec)
nearest neighbour list constructed           ...    0.0 sec
Grid point re-assignment to atoms done       ...    0.0 sec
Grid point division into batches done        ...    0.1 sec
Reduced shell lists constructed in    0.1 sec

Total number of grid points                  ...    37365
Total number of batches                      ...      592
Average number of points per batch           ...       63
Average number of grid points per atom       ...     1967
Average number of shells per batch           ...   104.97 (83.98%)
Average number of basis functions per batch  ...   256.17 (88.64%)
Average number of large shells per batch     ...    87.17 (83.04%)
Average number of large basis fcns per batch ...   210.56 (82.19%)
Maximum spatial batch extension              ...   1.95,  3.12,  2.49 au
Average spatial batch extension              ...   0.15,  0.16,  0.15 au

Time for grid setup =    0.621 sec

Loading Hartree-Fock densities                     ... done
Calculating cut-offs                               ... done
Setting up the integral package                    ... done
Initializing the effective Hamiltonian             ... done
Starting the Coulomb interaction                   ... done (   0.0 sec)
Reading the grid                                   ... done
Mapping shells                                     ... done
Starting the XC term evaluation                    ... done (   0.5 sec)
  promolecular density results
     # of electrons  =     54.995497876
     EX              =    -40.866797838
     EC              =     -1.827069655
     EX+EC           =    -42.693867493
Transforming the Hamiltonian                       ... done (   0.0 sec)
Diagonalizing the Hamiltonian                      ... done (   0.8 sec)
Back transforming the eigenvectors                 ... done (   0.0 sec)
Now organizing SCF variables                       ... done
--------------
SCF ITERATIONS
--------------
ITER       Energy         Delta-E        Max-DP      RMS-DP      [F,P]     Damp
               ***  Starting incremental Fock matrix formation  ***
  0   -289.9485216251   0.000000000000 0.03379593  0.00085756  0.1713452 0.7000
  1   -290.0191957737  -0.070674148605 0.02082889  0.00066761  0.0914441 0.7000
                               ***Turning on DIIS***
  2   -290.0501643874  -0.030968613675 0.04144229  0.00124994  0.0368242 0.0000
  3   -290.0949869299  -0.044822542529 0.01461135  0.00041828  0.0481123 0.0000
  4   -290.1062916999  -0.011304769992 0.00416125  0.00013120  0.0074198 0.0000
                      *** Initiating the SOSCF procedure ***
                           *** Shutting down DIIS ***
                      *** Re-Reading the Fockian *** 
                      *** Removing any level shift *** 
ITER      Energy       Delta-E        Grad      Rot      Max-DP    RMS-DP
  5   -290.10667782  -0.0003861241  0.000463  0.000463  0.001333  0.000046
               *** Restarting incremental Fock matrix formation ***
  6   -290.10670131  -0.0000234896  0.000184  0.000480  0.000982  0.000027
  7   -290.10670230  -0.0000009848  0.000145  0.000193  0.000247  0.000007
  8   -290.10670392  -0.0000016251  0.000019  0.000044  0.000087  0.000003
  9   -290.10670393  -0.0000000057  0.000014  0.000015  0.000026  0.000001
                  ***Gradient check signals convergence***
              ***Rediagonalizing the Fockian in SOSCF/NRSCF***

               *****************************************************
               *                     SUCCESS                       *
               *           SCF CONVERGED AFTER  10 CYCLES          *
               *****************************************************

Setting up the final grid:

General Integration Accuracy     IntAcc      ...  5.010
Radial Grid Type                 RadialGrid  ... Gauss-Chebyshev
Angular Grid (max. acc.)         AngularGrid ... Lebedev-434
Angular grid pruning method      GridPruning ... 3 (G Style)
Weight generation scheme         WeightScheme... Becke
Basis function cutoff            BFCut       ...    1.0000e-11
Integration weight cutoff        WCut        ...    1.0000e-14
Grids for H and He will be reduced by one unit

# of grid points (after initial pruning)     ... 155082 (   0.0 sec)
# of grid points (after weights+screening)   ... 138456 (   2.9 sec)
nearest neighbour list constructed           ...    0.0 sec
Grid point re-assignment to atoms done       ...    0.0 sec
Grid point division into batches done        ...    0.8 sec
Reduced shell lists constructed in    1.0 sec

Total number of grid points                  ...   138456
Total number of batches                      ...     2174
Average number of points per batch           ...       63
Average number of grid points per atom       ...     7287
Average number of shells per batch           ...   103.59 (82.87%)
Average number of basis functions per batch  ...   252.89 (87.51%)
Average number of large shells per batch     ...    85.56 (82.60%)
Average number of large basis fcns per batch ...   206.79 (81.77%)
Maximum spatial batch extension              ...   2.30,  2.07,  2.96 au
Average spatial batch extension              ...   0.10,  0.10,  0.10 au

Final grid set up in    6.3 sec
Final integration                            ... done (   1.8 sec)
Change in XC energy                          ...     0.000681529
Integrated number of electrons               ...    53.999931562
Previous integrated no of electrons          ...    54.001541436
Total Energy       :         -290.10602242 Eh           -7894.18620 eV
  Last Energy change         ...   -2.0227e-08  Tolerance :   1.0000e-08
  Last MAX-Density change    ...    8.2846e-06  Tolerance :   1.0000e-07
             **** THE GBW FILE WAS UPDATED (1661_+.gbw) ****
             **** DENSITY FILE WAS UPDATED (1661_+.scfp.tmp) ****
             **** ENERGY FILE WAS UPDATED (1661_+.en.tmp) ****
Total SCF time: 0 days 0 hours 2 min 19 sec 
           ************************************************************
           *              Shut down parallel processing               *
           ************************************************************

-------------------------   --------------------
FINAL SINGLE POINT ENERGY      -290.106022420119
-------------------------   --------------------



           ************************************************************
           *        Program running with 8 parallel MPI-processes     *
           *              working on a common directory               *
           ************************************************************
------------------------------------------------------------------------------
                         ORCA SCF GRADIENT CALCULATION
------------------------------------------------------------------------------

Gradient of the Kohn-Sham DFT energy:
Kohn-Sham wavefunction type      ... RKS
Hartree-Fock exchange scaling    ...    0.250
Number of operators              ...    1
Number of atoms                  ...   19
Basis set dimensions             ...  289
Integral neglect threshold       ... 2.5e-11
Integral primitive cutoff        ... 2.5e-12

Nuclear repulsion gradient       ... done
One Electron Gradient            ... done
Pre-screening matrix             ... done
Starting the two electron gradient:
Two electron gradient done
Exchange-correlation gradient    ... done

------------------
CARTESIAN GRADIENT
------------------

   1   C   :   -0.000011002    0.000032498    0.000034361
   2   C   :   -0.000145326    0.000026460   -0.000044487
   3   C   :   -0.000009404    0.000102085    0.000010850
   4   C   :   -0.000104349    0.000044481   -0.000063450
   5   C   :    0.000109342    0.000159041   -0.000132193
   6   C   :    0.000066712    0.000208497    0.000133247
   7   N   :    0.000127954    0.000046668    0.000025207
   8   H   :   -0.000008747   -0.000027546   -0.000112054
   9   H   :   -0.000058728   -0.000004202    0.000003256
  10   H   :    0.000031120   -0.000084673    0.000039333
  11   H   :   -0.000063645    0.000010258   -0.000026613
  12   H   :    0.000149270   -0.000169615    0.000057557
  13   H   :   -0.000025449   -0.000028131    0.000102999
  14   H   :   -0.000001325    0.000045505    0.000006496
  15   H   :   -0.000086584   -0.000154846    0.000024647
  16   H   :   -0.000019311   -0.000000737   -0.000030155
  17   H   :    0.000015078   -0.000138153    0.000054631
  18   H   :   -0.000028483   -0.000001756   -0.000033387
  19   H   :    0.000062879   -0.000065837   -0.000050245

Norm of the cartesian gradient     ...    0.000601342
RMS gradient                       ...    0.000079650
MAX gradient                       ...    0.000208497

-------
TIMINGS
-------

Total SCF gradient time            ...       69.250 sec

One electron gradient       ....       0.461 sec  (  0.7%)
Prescreening matrices       ....       1.550 sec  (  2.2%)
Two electron gradient       ....      29.699 sec  ( 42.9%)
XC gradient                 ....       3.521 sec  (  5.1%)
           ************************************************************
           *              Shut down parallel processing               *
           ************************************************************
------------------------------------------------------------------------------
                         ORCA GEOMETRY RELAXATION STEP
------------------------------------------------------------------------------

Reading the OPT-File                    .... done
Getting information on internals        .... done
Copying old internal coords+grads       .... done
Making the new internal coordinates     .... (new redundants).... done
Validating the new internal coordinates .... (new redundants).... done
Calculating the B-matrix                .... done
Calculating the G,G- and P matrices     .... done
Transforming gradient to internals      .... done
Projecting the internal gradient        .... done
Number of atoms                         ....  19
Number of internal coordinates          .... 131
Current Energy                          ....  -290.106022420 Eh
Current gradient norm                   ....     0.000601342 Eh/bohr
Maximum allowed component of the step   ....  0.300
Current trust radius                    ....  0.300
Evaluating the initial hessian          ....  (Almloef) done
Projecting the Hessian                  .... done
Forming the augmented Hessian           .... done
Diagonalizing the augmented Hessian     .... done
Last element of RFO vector              ....  0.999988457
Lowest eigenvalues of augmented Hessian:
 -0.000001428  0.012634126  0.012682455  0.021282983  0.033876652
Length of the computed step             ....  0.004804863
The final length of the internal step   ....  0.004804863
Converting the step to cartesian space:
 Initial RMS(Int)=    0.0004198028
Transforming coordinates:
 Iter   0:  RMS(Cart)=    0.0008508729 RMS(Int)=    0.0004197875
 Iter   1:  RMS(Cart)=    0.0000004636 RMS(Int)=    0.0000002900
 Iter   2:  RMS(Cart)=    0.0000000006 RMS(Int)=    0.0000000003
done
Storing new coordinates                 .... done

                                .--------------------.
          ----------------------|Geometry convergence|---------------------
          Item                value                 Tolerance   Converged
          -----------------------------------------------------------------
          RMS gradient        0.00004746            0.00003000      NO
          MAX gradient        0.00022878            0.00010000      NO
          RMS step            0.00041980            0.00060000      YES
          MAX step            0.00141417            0.00100000      NO
          ....................................................
          Max(Bonds)      0.0003      Max(Angles)    0.03
          Max(Dihed)        0.08      Max(Improp)    0.00
          -----------------------------------------------------------------

The optimization has not yet converged - more geometry cycles are needed


    ---------------------------------------------------------------------------
                         Redundant Internal Coordinates
                            (Angstroem and degrees)

        Definition                    Value    dE/dq     Step     New-Value
    ----------------------------------------------------------------------------
     1. B(C   1,C   0)                1.5115  0.000000 -0.0000    1.5115   
     2. B(C   2,C   1)                1.5316 -0.000172  0.0003    1.5319   
     3. B(C   3,C   2)                1.5193 -0.000101  0.0001    1.5194   
     4. B(C   4,C   3)                1.4965 -0.000043  0.0001    1.4966   
     5. B(C   5,C   3)                1.4964  0.000018 -0.0001    1.4962   
     6. B(C   5,C   4)                1.4889  0.000077 -0.0001    1.4888   
     7. B(N   6,C   1)                1.5300 -0.000107  0.0002    1.5303   
     8. B(N   6,C   5)                1.4874 -0.000027  0.0000    1.4874   
     9. B(H   7,C   0)                1.0929 -0.000099  0.0001    1.0931   
    10. B(H   8,C   0)                1.0904 -0.000042  0.0001    1.0904   
    11. B(H   9,C   0)                1.0932  0.000056 -0.0001    1.0931   
    12. B(H  10,C   1)                1.0914 -0.000010  0.0000    1.0914   
    13. B(H  11,C   2)                1.0916 -0.000229  0.0003    1.0919   
    14. B(H  12,C   2)                1.0894 -0.000093  0.0001    1.0896   
    15. B(H  13,C   3)                1.0816 -0.000033  0.0000    1.0816   
    16. B(H  14,C   4)                1.0856 -0.000111  0.0002    1.0858   
    17. B(H  15,C   4)                1.0824  0.000023 -0.0000    1.0824   
    18. B(H  16,C   5)                1.0809  0.000148 -0.0002    1.0807   
    19. B(H  17,N   6)                1.0202 -0.000038  0.0000    1.0202   
    20. B(H  18,N   6)                1.0209 -0.000102  0.0001    1.0210   
    21. A(H   8,C   0,H   9)          107.74  0.000009   -0.00    107.74   
    22. A(C   1,C   0,H   9)          111.42  0.000065   -0.01    111.41   
    23. A(H   7,C   0,H   9)          109.13 -0.000076    0.02    109.15   
    24. A(H   7,C   0,H   8)          107.32  0.000003   -0.00    107.31   
    25. A(C   1,C   0,H   7)          112.00  0.000064   -0.01    111.99   
    26. A(C   1,C   0,H   8)          109.05 -0.000070    0.01    109.07   
    27. A(N   6,C   1,H  10)          106.91 -0.000012   -0.01    106.90   
    28. A(C   2,C   1,H  10)          113.07 -0.000035    0.01    113.08   
    29. A(C   0,C   1,N   6)          108.50 -0.000038    0.01    108.51   
    30. A(C   2,C   1,N   6)          103.31  0.000077   -0.01    103.29   
    31. A(C   0,C   1,C   2)          113.63 -0.000056    0.02    113.65   
    32. A(C   0,C   1,H  10)          110.83  0.000066   -0.02    110.82   
    33. A(H  11,C   2,H  12)          107.22  0.000020   -0.01    107.22   
    34. A(C   1,C   2,H  12)          109.59 -0.000023    0.01    109.60   
    35. A(C   3,C   2,H  11)          111.36  0.000034   -0.01    111.34   
    36. A(C   1,C   2,H  11)          111.48 -0.000038    0.01    111.49   
    37. A(C   1,C   2,C   3)          105.79  0.000019   -0.01    105.78   
    38. A(C   3,C   2,H  12)          111.45 -0.000014    0.00    111.45   
    39. A(C   4,C   3,H  13)          118.99 -0.000020    0.01    118.99   
    40. A(C   2,C   3,H  13)          119.35 -0.000002    0.01    119.36   
    41. A(C   2,C   3,C   4)          116.52  0.000028   -0.02    116.50   
    42. A(C   4,C   3,C   5)           59.67  0.000036   -0.00     59.66   
    43. A(C   2,C   3,C   5)          107.97 -0.000043    0.01    107.98   
    44. A(C   5,C   3,H  13)          119.63  0.000012   -0.01    119.62   
    45. A(C   5,C   4,H  14)          118.89  0.000008    0.00    118.89   
    46. A(C   3,C   4,H  14)          118.31  0.000054   -0.03    118.28   
    47. A(C   3,C   4,C   5)           60.16  0.000001   -0.00     60.16   
    48. A(H  14,C   4,H  15)          114.32 -0.000043    0.01    114.34   
    49. A(C   5,C   4,H  15)          116.16  0.000018   -0.00    116.16   
    50. A(C   3,C   4,H  15)          118.54 -0.000011    0.01    118.56   
    51. A(C   3,C   5,C   4)           60.17 -0.000037    0.01     60.18   
    52. A(C   4,C   5,N   6)          115.30  0.000048   -0.02    115.27   
    53. A(C   3,C   5,N   6)          107.04  0.000021    0.00    107.04   
    54. A(N   6,C   5,H  16)          114.53 -0.000024    0.01    114.54   
    55. A(C   4,C   5,H  16)          122.98 -0.000003    0.00    122.98   
    56. A(C   3,C   5,H  16)          125.69 -0.000003    0.00    125.69   
    57. A(C   1,N   6,C   5)          107.61 -0.000066    0.01    107.62   
    58. A(H  17,N   6,H  18)          106.69 -0.000009   -0.00    106.69   
    59. A(C   5,N   6,H  18)          110.69  0.000026   -0.00    110.69   
    60. A(C   1,N   6,H  18)          110.98  0.000007   -0.00    110.98   
    61. A(C   5,N   6,H  17)          110.86  0.000003    0.00    110.86   
    62. A(C   1,N   6,H  17)          110.04  0.000042   -0.00    110.03   
    63. D(H  10,C   1,C   0,H   9)    178.62 -0.000007    0.07    178.69   
    64. D(H  10,C   1,C   0,H   7)     56.06 -0.000002    0.06     56.12   
    65. D(C   2,C   1,C   0,H   9)    -52.76 -0.000046    0.08    -52.68   
    66. D(N   6,C   1,C   0,H   8)   -179.67 -0.000000    0.08   -179.59   
    67. D(C   2,C   1,C   0,H   8)     66.04 -0.000039    0.08     66.12   
    68. D(N   6,C   1,C   0,H   9)     61.53 -0.000007    0.08     61.61   
    69. D(N   6,C   1,C   0,H   7)    -61.03 -0.000002    0.08    -60.96   
    70. D(H  10,C   1,C   0,H   8)    -62.57 -0.000000    0.06    -62.51   
    71. D(C   2,C   1,C   0,H   7)   -175.32 -0.000041    0.08   -175.25   
    72. D(H  11,C   2,C   1,N   6)     94.10  0.000027   -0.02     94.08   
    73. D(C   3,C   2,C   1,H  10)   -142.28 -0.000019    0.01   -142.27   
    74. D(H  11,C   2,C   1,H  10)    -21.08  0.000013   -0.01    -21.09   
    75. D(H  12,C   2,C   1,H  10)     97.46 -0.000001   -0.00     97.46   
    76. D(H  12,C   2,C   1,N   6)   -147.36  0.000013   -0.01   -147.37   
    77. D(H  12,C   2,C   1,C   0)    -30.01 -0.000014   -0.00    -30.01   
    78. D(C   3,C   2,C   1,C   0)     90.26 -0.000031    0.01     90.26   
    79. D(C   3,C   2,C   1,N   6)    -27.10 -0.000005   -0.00    -27.10   
    80. D(H  11,C   2,C   1,C   0)   -148.55  0.000000   -0.01   -148.56   
    81. D(H  13,C   3,C   2,H  12)     -5.33 -0.000010    0.01     -5.32   
    82. D(H  13,C   3,C   2,H  11)    114.36  0.000028   -0.01    114.35   
    83. D(C   5,C   3,C   2,H  12)    135.81 -0.000048    0.02    135.83   
    84. D(C   5,C   3,C   2,C   1)     16.77 -0.000025    0.01     16.78   
    85. D(C   4,C   3,C   2,H  12)   -159.75 -0.000021    0.02   -159.73   
    86. D(C   4,C   3,C   2,H  11)    -40.07  0.000018    0.01    -40.06   
    87. D(C   5,C   3,C   2,H  11)   -104.51 -0.000010    0.01   -104.50   
    88. D(C   4,C   3,C   2,C   1)     81.21  0.000003    0.00     81.22   
    89. D(H  13,C   3,C   2,C   1)   -124.36  0.000013   -0.01   -124.37   
    90. D(H  14,C   4,C   3,C   2)     12.72  0.000039   -0.01     12.71   
    91. D(C   5,C   4,C   3,C   2)    -96.17  0.000052   -0.02    -96.19   
    92. D(C   5,C   4,C   3,H  13)    109.31  0.000037   -0.01    109.30   
    93. D(H  14,C   4,C   3,C   5)    108.89 -0.000013    0.01    108.90   
    94. D(H  15,C   4,C   3,H  13)      3.84  0.000010   -0.00      3.84   
    95. D(H  15,C   4,C   3,C   5)   -105.46 -0.000027    0.01   -105.45   
    96. D(H  15,C   4,C   3,C   2)    158.37  0.000025   -0.01    158.35   
    97. D(H  14,C   4,C   3,H  13)   -141.81  0.000024    0.00   -141.80   
    98. D(H  16,C   5,C   4,H  15)     -6.06 -0.000001    0.01     -6.05   
    99. D(H  16,C   5,C   4,H  14)    136.62 -0.000043    0.04    136.66   
   100. D(H  16,C   5,C   4,C   3)   -115.45  0.000019   -0.01   -115.45   
   101. D(N   6,C   5,C   4,H  15)   -154.72 -0.000036    0.03   -154.69   
   102. D(N   6,C   5,C   4,C   3)     95.89 -0.000015    0.02     95.91   
   103. D(C   3,C   5,C   4,H  15)    109.39 -0.000021    0.02    109.40   
   104. D(C   3,C   5,C   4,H  14)   -107.93 -0.000062    0.04   -107.89   
   105. D(H  16,C   5,C   3,H  13)      2.89 -0.000009    0.00      2.89   
   106. D(H  16,C   5,C   3,C   4)    111.14 -0.000023    0.01    111.15   
   107. D(H  16,C   5,C   3,C   2)   -138.12  0.000035   -0.02   -138.14   
   108. D(N   6,C   5,C   4,H  14)    -12.05 -0.000078    0.06    -11.99   
   109. D(N   6,C   5,C   3,H  13)    141.90 -0.000026    0.02    141.92   
   110. D(N   6,C   5,C   3,C   4)   -109.85 -0.000041    0.03   -109.82   
   111. D(N   6,C   5,C   3,C   2)      0.89  0.000018   -0.00      0.89   
   112. D(C   4,C   5,C   3,H  13)   -108.25  0.000015   -0.01   -108.26   
   113. D(C   4,C   5,C   3,C   2)    110.74  0.000059   -0.03    110.71   
   114. D(C   1,N   6,C   5,C   4)    -82.91  0.000039   -0.01    -82.92   
   115. D(C   1,N   6,C   5,C   3)    -18.42  0.000011   -0.00    -18.42   
   116. D(H  18,N   6,C   1,H  10)     26.54 -0.000011    0.01     26.55   
   117. D(H  18,N   6,C   1,C   2)    -92.98 -0.000003    0.01    -92.97   
   118. D(H  18,N   6,C   1,C   0)    146.12  0.000040   -0.01    146.11   
   119. D(H  17,N   6,C   1,H  10)    -91.32 -0.000030    0.02    -91.31   
   120. D(H  17,N   6,C   1,C   2)    149.16 -0.000022    0.01    149.17   
   121. D(H  17,N   6,C   1,C   0)     28.26  0.000020   -0.01     28.26   
   122. D(C   5,N   6,C   1,H  10)    147.79 -0.000018    0.01    147.80   
   123. D(C   5,N   6,C   1,C   2)     28.27 -0.000010    0.01     28.28   
   124. D(C   1,N   6,C   5,H  16)    125.74  0.000003    0.01    125.75   
   125. D(C   5,N   6,C   1,C   0)    -92.63  0.000033   -0.01    -92.64   
   126. D(H  18,N   6,C   5,H  16)   -112.83 -0.000015    0.01   -112.82   
   127. D(H  18,N   6,C   5,C   4)     38.51  0.000021   -0.01     38.50   
   128. D(H  18,N   6,C   5,C   3)    103.01 -0.000007   -0.00    103.01   
   129. D(H  17,N   6,C   5,H  16)      5.37 -0.000008    0.01      5.38   
   130. D(H  17,N   6,C   5,C   4)    156.71  0.000028   -0.01    156.70   
   131. D(H  17,N   6,C   5,C   3)   -138.79  0.000000   -0.00   -138.80   
    ----------------------------------------------------------------------------

         *************************************************************
         *                GEOMETRY OPTIMIZATION CYCLE   2            *
         *************************************************************
---------------------------------
CARTESIAN COORDINATES (ANGSTROEM)
---------------------------------
  C      2.247259    0.000199    0.198193
  C      0.943514    0.760016    0.285703
  C      0.169213    0.806146   -1.035341
  C     -0.739220   -0.411785   -1.024723
  C     -2.016057   -0.285757   -0.254321
  C     -0.824981   -0.911718    0.382920
  N     -0.000104   -0.000209    1.220242
  H      2.736231   -0.087276    1.171895
  H      2.929622    0.538323   -0.460451
  H      2.099445   -0.998965   -0.219845
  H      1.098479    1.746819    0.725415
  H     -0.405463    1.729757   -1.130117
  H      0.868585    0.774361   -1.870235
  H     -0.687170   -1.119371   -1.841133
  H     -2.325686    0.703119    0.070021
  H     -2.833867   -0.952487   -0.495564
  H     -0.797014   -1.948516    0.686651
  H      0.538678   -0.526869    1.908165
  H     -0.593757    0.644621    1.743916

----------------------------
CARTESIAN COORDINATES (A.U.)
----------------------------
  NO LB      ZA    FRAG    MASS        X           Y           Z
   0 C     6.0000    0    12.011          4.246704238636000          0.000376810281147          0.374530115966546
   1 C     6.0000    0    12.011          1.782982815396682          1.436221969102282          0.539901318927844
   2 C     6.0000    0    12.011          0.319766024252457          1.523395519298568         -1.956511662108890
   3 C     6.0000    0    12.011         -1.396922640000660         -0.778161032193783         -1.936446263050213
   4 C     6.0000    0    12.011         -3.809796317654076         -0.540002653792263         -0.480597104944657
   5 C     6.0000    0    12.011         -1.558988569302687         -1.722898258987531          0.723614546232809
   6 N     7.0000    0    14.007         -0.000196029691704         -0.000394732272501          2.305923731093095
   7 H     1.0000    0     1.008          5.170726306210539         -0.164928326938901          2.214560170538843
   8 H     1.0000    0     1.008          5.536182718953034          1.017283526890774         -0.870126104216615
   9 H     1.0000    0     1.008          3.967375973417020         -1.887769919424686         -0.415446352195292
  10 H     1.0000    0     1.008          2.075824164581964          3.301009283910249          1.370835586419709
  11 H     1.0000    0     1.008         -0.766213314922628          3.268767004804812         -2.135611652018689
  12 H     1.0000    0     1.008          1.641386887385921          1.463330232759204         -3.534231957962154
  13 H     1.0000    0     1.008         -1.298563533411303         -2.115305569246126         -3.479237987396693
  14 H     1.0000    0     1.008         -4.394910311640431          1.328703073549850          0.132320887576240
  15 H     1.0000    0     1.008         -5.355232865468296         -1.799938930401737         -0.936479353546019
  16 H     1.0000    0     1.008         -1.506137634906766         -3.682161215775737          1.297581601065739
  17 H     1.0000    0     1.008          1.017953264074691         -0.995638337559555          3.605909114688512
  18 H     1.0000    0     1.008         -1.122037693569430          1.218156233731906          3.295523198924673

--------------------------------
INTERNAL COORDINATES (ANGSTROEM)
--------------------------------
 C      0   0   0   0.000000     0.000     0.000
 C      1   0   0   1.511533     0.000     0.000
 C      2   1   0   1.531937   113.651     0.000
 C      3   2   1   1.519447   105.785    90.262
 C      4   3   2   1.496568   116.499    81.215
 C      5   4   3   1.488814    60.157   263.808
 N      6   5   4   1.487407   115.275    95.907
 H      1   2   3   1.093088   111.993   184.752
 H      1   2   3   1.090416   109.066    66.119
 H      1   2   3   1.093130   111.406   307.319
 H      2   1   3   1.091394   110.816   231.370
 H      3   2   1   1.091921   111.490   211.445
 H      3   2   1   1.089577   109.601   329.990
 H      4   3   2   1.081625   119.362   235.628
 H      5   4   3   1.085792   118.279    12.708
 H      5   4   3   1.082377   118.557   158.355
 H      6   5   4   1.080733   122.980   244.549
 H      7   6   5   1.020242   110.861   156.700
 H      7   6   5   1.021011   110.690    38.503

---------------------------
INTERNAL COORDINATES (A.U.)
---------------------------
 C      0   0   0   0.000000     0.000     0.000
 C      1   0   0   2.856383     0.000     0.000
 C      2   1   0   2.894940   113.651     0.000
 C      3   2   1   2.871339   105.785    90.262
 C      4   3   2   2.828105   116.499    81.215
 C      5   4   3   2.813450    60.157   263.808
 N      6   5   4   2.810793   115.275    95.907
 H      1   2   3   2.065636   111.993   184.752
 H      1   2   3   2.060588   109.066    66.119
 H      1   2   3   2.065717   111.406   307.319
 H      2   1   3   2.062435   110.816   231.370
 H      3   2   1   2.063431   111.490   211.445
 H      3   2   1   2.059002   109.601   329.990
 H      4   3   2   2.043976   119.362   235.628
 H      5   4   3   2.051850   118.279    12.708
 H      5   4   3   2.045395   118.557   158.355
 H      6   5   4   2.042289   122.980   244.549
 H      7   6   5   1.927978   110.861   156.700
 H      7   6   5   1.929431   110.690    38.503



           ************************************************************
           *        Program running with 8 parallel MPI-processes     *
           *              working on a common directory               *
           ************************************************************
           ************************************************************
           *              Shut down parallel processing               *
           ************************************************************


           ************************************************************
           *        Program running with 8 parallel MPI-processes     *
           *              working on a common directory               *
           ************************************************************

Diagonalization of the overlap matrix:
Smallest eigenvalue                        ... 8.704e-05
Time for diagonalization                   ...    0.415 sec
Threshold for overlap eigenvalues          ... 1.000e-08
Number of eigenvalues below threshold      ... 0
Time for construction of square roots      ...    0.035 sec
Total time needed                          ...    0.450 sec

-------------------
DFT GRID GENERATION
-------------------

General Integration Accuracy     IntAcc      ...  4.340
Radial Grid Type                 RadialGrid  ... Gauss-Chebyshev
Angular Grid (max. acc.)         AngularGrid ... Lebedev-194
Angular grid pruning method      GridPruning ... 3 (G Style)
Weight generation scheme         WeightScheme... Becke
Basis function cutoff            BFCut       ...    1.0000e-11
Integration weight cutoff        WCut        ...    1.0000e-14
Grids for H and He will be reduced by one unit

# of grid points (after initial pruning)     ...  41338 (   0.0 sec)
# of grid points (after weights+screening)   ...  37366 (   0.1 sec)
nearest neighbour list constructed           ...    0.0 sec
Grid point re-assignment to atoms done       ...    0.0 sec
Grid point division into batches done        ...    0.1 sec
Reduced shell lists constructed in    0.1 sec

Total number of grid points                  ...    37366
Total number of batches                      ...      592
Average number of points per batch           ...       63
Average number of grid points per atom       ...     1967
Average number of shells per batch           ...   104.97 (83.98%)
Average number of basis functions per batch  ...   256.17 (88.64%)
Average number of large shells per batch     ...    87.19 (83.06%)
Average number of large basis fcns per batch ...   210.57 (82.20%)
Maximum spatial batch extension              ...   1.95,  3.12,  2.49 au
Average spatial batch extension              ...   0.15,  0.16,  0.15 au

Time for grid setup =    0.567 sec

--------------
SCF ITERATIONS
--------------
ITER       Energy         Delta-E        Max-DP      RMS-DP      [F,P]     Damp
               ***  Starting incremental Fock matrix formation  ***
                      *** Initiating the SOSCF procedure ***
                      *** Re-Reading the Fockian *** 
                      *** Removing any level shift *** 
ITER      Energy       Delta-E        Grad      Rot      Max-DP    RMS-DP
  0   -290.10670511 -290.1067051131  0.000088  0.000088  0.000132  0.000004
               *** Restarting incremental Fock matrix formation ***
  1   -290.10670571  -0.0000005986  0.000027  0.000049  0.000053  0.000002
  2   -290.10670576  -0.0000000498  0.000009  0.000016  0.000024  0.000001
  3   -290.10670577  -0.0000000077  0.000005  0.000009  0.000011  0.000000
                  ***Gradient check signals convergence***
              ***Rediagonalizing the Fockian in SOSCF/NRSCF***

               *****************************************************
               *                     SUCCESS                       *
               *           SCF CONVERGED AFTER   4 CYCLES          *
               *****************************************************

Setting up the final grid:

General Integration Accuracy     IntAcc      ...  5.010
Radial Grid Type                 RadialGrid  ... Gauss-Chebyshev
Angular Grid (max. acc.)         AngularGrid ... Lebedev-434
Angular grid pruning method      GridPruning ... 3 (G Style)
Weight generation scheme         WeightScheme... Becke
Basis function cutoff            BFCut       ...    1.0000e-11
Integration weight cutoff        WCut        ...    1.0000e-14
Grids for H and He will be reduced by one unit

# of grid points (after initial pruning)     ... 155082 (   0.0 sec)
# of grid points (after weights+screening)   ... 138460 (   5.6 sec)
nearest neighbour list constructed           ...    0.0 sec
Grid point re-assignment to atoms done       ...    0.0 sec
Grid point division into batches done        ...    0.8 sec
Reduced shell lists constructed in    1.1 sec

Total number of grid points                  ...   138460
Total number of batches                      ...     2174
Average number of points per batch           ...       63
Average number of grid points per atom       ...     7287
Average number of shells per batch           ...   103.58 (82.87%)
Average number of basis functions per batch  ...   252.89 (87.50%)
Average number of large shells per batch     ...    85.57 (82.61%)
Average number of large basis fcns per batch ...   206.76 (81.76%)
Maximum spatial batch extension              ...   2.53,  2.07,  2.96 au
Average spatial batch extension              ...   0.10,  0.10,  0.10 au

Final grid set up in    9.0 sec
Final integration                            ... done (   1.9 sec)
Change in XC energy                          ...     0.000682430
Integrated number of electrons               ...    53.999932116
Previous integrated no of electrons          ...    54.001550711
Total Energy       :         -290.10602334 Eh           -7894.18623 eV
  Last Energy change         ...   -4.4317e-09  Tolerance :   1.0000e-08
  Last MAX-Density change    ...    2.8009e-06  Tolerance :   1.0000e-07
             **** THE GBW FILE WAS UPDATED (1661_+.gbw) ****
             **** DENSITY FILE WAS UPDATED (1661_+.scfp.tmp) ****
             **** ENERGY FILE WAS UPDATED (1661_+.en.tmp) ****
Total SCF time: 0 days 0 hours 1 min 8 sec 
           ************************************************************
           *              Shut down parallel processing               *
           ************************************************************

-------------------------   --------------------
FINAL SINGLE POINT ENERGY      -290.106023343996
-------------------------   --------------------



           ************************************************************
           *        Program running with 8 parallel MPI-processes     *
           *              working on a common directory               *
           ************************************************************
------------------------------------------------------------------------------
                         ORCA SCF GRADIENT CALCULATION
------------------------------------------------------------------------------

Gradient of the Kohn-Sham DFT energy:
Kohn-Sham wavefunction type      ... RKS
Hartree-Fock exchange scaling    ...    0.250
Number of operators              ...    1
Number of atoms                  ...   19
Basis set dimensions             ...  289
Integral neglect threshold       ... 2.5e-11
Integral primitive cutoff        ... 2.5e-12

Nuclear repulsion gradient       ... done
One Electron Gradient            ... done
Pre-screening matrix             ... done
Starting the two electron gradient:
Two electron gradient done
Exchange-correlation gradient    ... done

------------------
CARTESIAN GRADIENT
------------------

   1   C   :   -0.000016870    0.000010364   -0.000009585
   2   C   :   -0.000030134   -0.000000852    0.000005474
   3   C   :    0.000000434    0.000007224   -0.000013274
   4   C   :   -0.000086897    0.000007825   -0.000007168
   5   C   :    0.000134353    0.000081963   -0.000081307
   6   C   :    0.000025075   -0.000005363    0.000082207
   7   N   :    0.000057903    0.000000885   -0.000027549
   8   H   :    0.000021707   -0.000022567   -0.000018407
   9   H   :   -0.000019009   -0.000000896   -0.000018575
  10   H   :    0.000011520   -0.000020233    0.000032770
  11   H   :   -0.000024548    0.000007604   -0.000006371
  12   H   :    0.000016073    0.000006388    0.000015170
  13   H   :    0.000010895   -0.000020077    0.000015865
  14   H   :   -0.000001174    0.000012134   -0.000010774
  15   H   :   -0.000093330   -0.000036333    0.000032252
  16   H   :    0.000003253   -0.000006089   -0.000006334
  17   H   :    0.000006397   -0.000002006    0.000008307
  18   H   :   -0.000011148   -0.000022007   -0.000004404
  19   H   :   -0.000004501    0.000002036    0.000011701

Norm of the cartesian gradient     ...    0.000264944
RMS gradient                       ...    0.000035093
MAX gradient                       ...    0.000134353

-------
TIMINGS
-------

Total SCF gradient time            ...       60.000 sec

One electron gradient       ....       0.135 sec  (  0.2%)
Prescreening matrices       ....       1.040 sec  (  1.7%)
Two electron gradient       ....      29.568 sec  ( 49.3%)
XC gradient                 ....       3.468 sec  (  5.8%)
           ************************************************************
           *              Shut down parallel processing               *
           ************************************************************
------------------------------------------------------------------------------
                         ORCA GEOMETRY RELAXATION STEP
------------------------------------------------------------------------------

Reading the OPT-File                    .... done
Getting information on internals        .... done
Copying old internal coords+grads       .... done
Making the new internal coordinates     .... (new redundants).... done
Validating the new internal coordinates .... (new redundants).... done
Calculating the B-matrix                .... done
Calculating the G,G- and P matrices     .... done
Transforming gradient to internals      .... done
Projecting the internal gradient        .... done
Number of atoms                         ....  19
Number of internal coordinates          .... 131
Current Energy                          ....  -290.106023344 Eh
Current gradient norm                   ....     0.000264944 Eh/bohr
Maximum allowed component of the step   ....  0.300
Current trust radius                    ....  0.300
Updating the Hessian (BFGS)             .... done
Forming the augmented Hessian           .... done
Diagonalizing the augmented Hessian     .... done
Last element of RFO vector              ....  0.999983161
Lowest eigenvalues of augmented Hessian:
 -0.000000588  0.010026674  0.012634580  0.021258640  0.033739877
Length of the computed step             ....  0.005803374
The final length of the internal step   ....  0.005803374
Converting the step to cartesian space:
 Initial RMS(Int)=    0.0005070432
Transforming coordinates:
 Iter   0:  RMS(Cart)=    0.0009384096 RMS(Int)=    0.0005070297
 Iter   1:  RMS(Cart)=    0.0000006916 RMS(Int)=    0.0000004393
 Iter   2:  RMS(Cart)=    0.0000000011 RMS(Int)=    0.0000000007
done
Storing new coordinates                 .... done

                                .--------------------.
          ----------------------|Geometry convergence|---------------------
          Item                value                 Tolerance   Converged
          -----------------------------------------------------------------
          Energy change      -0.00000092            0.00000100      YES
          RMS gradient        0.00001578            0.00003000      YES
          MAX gradient        0.00004837            0.00010000      YES
          RMS step            0.00050704            0.00060000      YES
          MAX step            0.00183274            0.00100000      NO
          ....................................................
          Max(Bonds)      0.0001      Max(Angles)    0.04
          Max(Dihed)        0.11      Max(Improp)    0.00
          -----------------------------------------------------------------

       The energies and gradients are converged
       and the convergence on bond distances, angles, dihedrals and impropers
       is acceptable.
       Convergence will therefore be signaled now


                    ***********************HURRAY********************
                    ***        THE OPTIMIZATION HAS CONVERGED     ***
                    *************************************************


    ---------------------------------------------------------------------------
                         Redundant Internal Coordinates

                          --- Optimized Parameters ---  
                            (Angstroem and degrees)

        Definition                    OldVal   dE/dq     Step     FinalVal
    ----------------------------------------------------------------------------
     1. B(C   1,C   0)                1.5115  0.000012 -0.0000    1.5115   
     2. B(C   2,C   1)                1.5319 -0.000018  0.0001    1.5321   
     3. B(C   3,C   2)                1.5194 -0.000026  0.0001    1.5195   
     4. B(C   4,C   3)                1.4966 -0.000037  0.0001    1.4967   
     5. B(C   5,C   3)                1.4962  0.000015 -0.0001    1.4961   
     6. B(C   5,C   4)                1.4888  0.000025 -0.0001    1.4887   
     7. B(N   6,C   1)                1.5303 -0.000018  0.0001    1.5304   
     8. B(N   6,C   5)                1.4874 -0.000015  0.0000    1.4874   
     9. B(H   7,C   0)                1.0931 -0.000002  0.0000    1.0931   
    10. B(H   8,C   0)                1.0904 -0.000003  0.0000    1.0904   
    11. B(H   9,C   0)                1.0931  0.000003 -0.0000    1.0931   
    12. B(H  10,C   1)                1.0914  0.000001 -0.0000    1.0914   
    13. B(H  11,C   2)                1.0919 -0.000006  0.0001    1.0920   
    14. B(H  12,C   2)                1.0896 -0.000003  0.0000    1.0896   
    15. B(H  13,C   3)                1.0816  0.000002  0.0000    1.0816   
    16. B(H  14,C   4)                1.0858  0.000001  0.0000    1.0858   
    17. B(H  15,C   4)                1.0824  0.000004 -0.0000    1.0824   
    18. B(H  16,C   5)                1.0807  0.000004 -0.0001    1.0807   
    19. B(H  17,N   6)                1.0202  0.000001  0.0000    1.0203   
    20. B(H  18,N   6)                1.0210  0.000012  0.0000    1.0210   
    21. A(H   8,C   0,H   9)          107.74  0.000005   -0.00    107.74   
    22. A(C   1,C   0,H   9)          111.41  0.000019   -0.01    111.40   
    23. A(H   7,C   0,H   9)          109.15 -0.000040    0.02    109.16   
    24. A(H   7,C   0,H   8)          107.31 -0.000001   -0.00    107.31   
    25. A(C   1,C   0,H   7)          111.99  0.000043   -0.01    111.98   
    26. A(C   1,C   0,H   8)          109.07 -0.000028    0.01    109.07   
    27. A(N   6,C   1,H  10)          106.90 -0.000001   -0.01    106.89   
    28. A(C   2,C   1,H  10)          113.08 -0.000016    0.01    113.09   
    29. A(C   0,C   1,N   6)          108.51 -0.000016    0.01    108.52   
    30. A(C   2,C   1,N   6)          103.29  0.000027   -0.01    103.28   
    31. A(C   0,C   1,C   2)          113.65 -0.000018    0.01    113.66   
    32. A(C   0,C   1,H  10)          110.82  0.000024   -0.01    110.80   
    33. A(H  11,C   2,H  12)          107.22  0.000007   -0.01    107.21   
    34. A(C   1,C   2,H  12)          109.60 -0.000005    0.01    109.61   
    35. A(C   3,C   2,H  11)          111.34  0.000019   -0.01    111.33   
    36. A(C   1,C   2,H  11)          111.49 -0.000011    0.01    111.49   
    37. A(C   1,C   2,C   3)          105.78 -0.000006   -0.00    105.78   
    38. A(C   3,C   2,H  12)          111.45 -0.000006    0.01    111.46   
    39. A(C   4,C   3,H  13)          118.99 -0.000009    0.01    119.00   
    40. A(C   2,C   3,H  13)          119.36 -0.000004    0.01    119.37   
    41. A(C   2,C   3,C   4)          116.50  0.000015   -0.02    116.48   
    42. A(C   4,C   3,C   5)           59.66  0.000015   -0.00     59.66   
    43. A(C   2,C   3,C   5)          107.98 -0.000010    0.01    107.99   
    44. A(C   5,C   3,H  13)          119.62  0.000000   -0.00    119.62   
    45. A(C   5,C   4,H  14)          118.89  0.000020   -0.01    118.89   
    46. A(C   3,C   4,H  14)          118.28  0.000043   -0.04    118.24   
    47. A(C   3,C   4,C   5)           60.16  0.000009   -0.01     60.15   
    48. A(H  14,C   4,H  15)          114.34 -0.000027    0.02    114.36   
    49. A(C   5,C   4,H  15)          116.16 -0.000007    0.01    116.17   
    50. A(C   3,C   4,H  15)          118.56 -0.000016    0.02    118.57   
    51. A(C   3,C   5,C   4)           60.18 -0.000023    0.01     60.19   
    52. A(C   4,C   5,N   6)          115.27  0.000021   -0.02    115.26   
    53. A(C   3,C   5,N   6)          107.04  0.000016   -0.00    107.04   
    54. A(N   6,C   5,H  16)          114.54 -0.000013    0.01    114.55   
    55. A(C   4,C   5,H  16)          122.98  0.000001    0.00    122.98   
    56. A(C   3,C   5,H  16)          125.69 -0.000003    0.00    125.69   
    57. A(C   1,N   6,C   5)          107.62 -0.000028    0.01    107.62   
    58. A(H  17,N   6,H  18)          106.69 -0.000004   -0.00    106.69   
    59. A(C   5,N   6,H  18)          110.69  0.000011   -0.00    110.69   
    60. A(C   1,N   6,H  18)          110.98  0.000008   -0.00    110.97   
    61. A(C   5,N   6,H  17)          110.86 -0.000008    0.01    110.87   
    62. A(C   1,N   6,H  17)          110.03  0.000022   -0.01    110.03   
    63. D(H  10,C   1,C   0,H   9)    178.69 -0.000007    0.09    178.78   
    64. D(H  10,C   1,C   0,H   7)     56.12 -0.000000    0.08     56.20   
    65. D(C   2,C   1,C   0,H   9)    -52.68 -0.000024    0.11    -52.58   
    66. D(N   6,C   1,C   0,H   8)   -179.59 -0.000011    0.10   -179.49   
    67. D(C   2,C   1,C   0,H   8)     66.12 -0.000024    0.10     66.22   
    68. D(N   6,C   1,C   0,H   9)     61.61 -0.000010    0.10     61.71   
    69. D(N   6,C   1,C   0,H   7)    -60.96 -0.000004    0.10    -60.86   
    70. D(H  10,C   1,C   0,H   8)    -62.51 -0.000007    0.09    -62.42   
    71. D(C   2,C   1,C   0,H   7)   -175.25 -0.000017    0.10   -175.15   
    72. D(H  11,C   2,C   1,N   6)     94.08  0.000012   -0.02     94.06   
    73. D(C   3,C   2,C   1,H  10)   -142.27 -0.000010    0.00   -142.27   
    74. D(H  11,C   2,C   1,H  10)    -21.09  0.000004   -0.01    -21.10   
    75. D(H  12,C   2,C   1,H  10)     97.46  0.000003   -0.01     97.45   
    76. D(H  12,C   2,C   1,N   6)   -147.37  0.000011   -0.02   -147.39   
    77. D(H  12,C   2,C   1,C   0)    -30.01 -0.000000   -0.01    -30.02   
    78. D(C   3,C   2,C   1,C   0)     90.26 -0.000013    0.00     90.26   
    79. D(C   3,C   2,C   1,N   6)    -27.10 -0.000002   -0.00    -27.11   
    80. D(H  11,C   2,C   1,C   0)   -148.56  0.000001   -0.01   -148.57   
    81. D(H  13,C   3,C   2,H  12)     -5.32 -0.000006    0.01     -5.31   
    82. D(H  13,C   3,C   2,H  11)    114.35  0.000012   -0.00    114.35   
    83. D(C   5,C   3,C   2,H  12)    135.83 -0.000024    0.03    135.86   
    84. D(C   5,C   3,C   2,C   1)     16.78 -0.000011    0.01     16.79   
    85. D(C   4,C   3,C   2,H  12)   -159.73 -0.000009    0.02   -159.71   
    86. D(C   4,C   3,C   2,H  11)    -40.06  0.000009    0.01    -40.05   
    87. D(C   5,C   3,C   2,H  11)   -104.50 -0.000006    0.02   -104.48   
    88. D(C   4,C   3,C   2,C   1)     81.22  0.000003    0.01     81.22   
    89. D(H  13,C   3,C   2,C   1)   -124.37  0.000006   -0.00   -124.38   
    90. D(H  14,C   4,C   3,C   2)     12.71  0.000023   -0.01     12.70   
    91. D(C   5,C   4,C   3,C   2)    -96.19  0.000014   -0.02    -96.21   
    92. D(C   5,C   4,C   3,H  13)    109.30  0.000009   -0.01    109.29   
    93. D(H  14,C   4,C   3,C   5)    108.90  0.000009    0.01    108.91   
    94. D(H  15,C   4,C   3,H  13)      3.84  0.000008   -0.01      3.84   
    95. D(H  15,C   4,C   3,C   5)   -105.45 -0.000002    0.00   -105.45   
    96. D(H  15,C   4,C   3,C   2)    158.35  0.000012   -0.02    158.34   
    97. D(H  14,C   4,C   3,H  13)   -141.80  0.000018    0.00   -141.80   
    98. D(H  16,C   5,C   4,H  15)     -6.05  0.000001    0.01     -6.04   
    99. D(H  16,C   5,C   4,H  14)    136.66 -0.000033    0.05    136.71   
   100. D(H  16,C   5,C   4,C   3)   -115.45  0.000014   -0.01   -115.46   
   101. D(N   6,C   5,C   4,H  15)   -154.69 -0.000015    0.03   -154.66   
   102. D(N   6,C   5,C   4,C   3)     95.91 -0.000001    0.01     95.92   
   103. D(C   3,C   5,C   4,H  15)    109.40 -0.000014    0.01    109.42   
   104. D(C   3,C   5,C   4,H  14)   -107.89 -0.000047    0.05   -107.84   
   105. D(H  16,C   5,C   3,H  13)      2.89 -0.000006   -0.00      2.89   
   106. D(H  16,C   5,C   3,C   4)    111.15 -0.000010    0.01    111.15   
   107. D(H  16,C   5,C   3,C   2)   -138.14  0.000014   -0.02   -138.17   
   108. D(N   6,C   5,C   4,H  14)    -11.99 -0.000048    0.07    -11.92   
   109. D(N   6,C   5,C   3,H  13)    141.92 -0.000009    0.01    141.94   
   110. D(N   6,C   5,C   3,C   4)   -109.82 -0.000014    0.02   -109.80   
   111. D(N   6,C   5,C   3,C   2)      0.89  0.000011   -0.01      0.88   
   112. D(C   4,C   5,C   3,H  13)   -108.26  0.000005   -0.01   -108.27   
   113. D(C   4,C   5,C   3,C   2)    110.71  0.000025   -0.03    110.68   
   114. D(C   1,N   6,C   5,C   4)    -82.92  0.000014   -0.00    -82.93   
   115. D(C   1,N   6,C   5,C   3)    -18.42 -0.000003    0.00    -18.42   
   116. D(H  18,N   6,C   1,H  10)     26.55 -0.000005    0.01     26.56   
   117. D(H  18,N   6,C   1,C   2)    -92.97  0.000001    0.00    -92.97   
   118. D(H  18,N   6,C   1,C   0)    146.11  0.000015   -0.01    146.10   
   119. D(H  17,N   6,C   1,H  10)    -91.31 -0.000018    0.02    -91.29   
   120. D(H  17,N   6,C   1,C   2)    149.17 -0.000013    0.01    149.19   
   121. D(H  17,N   6,C   1,C   0)     28.26  0.000001   -0.00     28.26   
   122. D(C   5,N   6,C   1,H  10)    147.80 -0.000004    0.01    147.80   
   123. D(C   5,N   6,C   1,C   2)     28.28  0.000001    0.00     28.28   
   124. D(C   1,N   6,C   5,H  16)    125.75 -0.000003    0.01    125.77   
   125. D(C   5,N   6,C   1,C   0)    -92.64  0.000015   -0.01    -92.65   
   126. D(H  18,N   6,C   5,H  16)   -112.82 -0.000004    0.01   -112.81   
   127. D(H  18,N   6,C   5,C   4)     38.50  0.000013   -0.01     38.50   
   128. D(H  18,N   6,C   5,C   3)    103.01 -0.000004    0.00    103.01   
   129. D(H  17,N   6,C   5,H  16)      5.38 -0.000007    0.01      5.39   
   130. D(H  17,N   6,C   5,C   4)    156.70  0.000010   -0.01    156.69   
   131. D(H  17,N   6,C   5,C   3)   -138.80 -0.000008    0.00   -138.79   
    ----------------------------------------------------------------------------
                 *******************************************************
                 *** FINAL ENERGY EVALUATION AT THE STATIONARY POINT ***
                 ***               (AFTER    2 CYCLES)               ***
                 *******************************************************


           ************************************************************
           *        Program running with 8 parallel MPI-processes     *
           *              working on a common directory               *
           ************************************************************
           ************************************************************
           *              Shut down parallel processing               *
           ************************************************************


           ************************************************************
           *        Program running with 8 parallel MPI-processes     *
           *              working on a common directory               *
           ************************************************************
------------
SCF SETTINGS
------------
Hamiltonian:
 Density Functional     Method          .... DFT(GTOs)
 Exchange Functional    Exchange        .... PBE
   PBE kappa parameter  XKappa          ....  0.804000
 Correlation Functional Correlation     .... PBE
 LDA part of GGA corr.  LDAOpt          .... PW91-LDA
 Gradients option       PostSCFGGA      .... off
 Hybrid DFT is turned on
   Fraction HF Exchange ScalHFX         ....  0.250000
   Scaling of DF-GGA-X  ScalDFX         ....  0.750000
   Scaling of DF-GGA-C  ScalDFC         ....  1.000000
   Scaling of DF-LDA-C  ScalLDAC        ....  1.000000
   Perturbative correction              ....  0.000000
   NL short-range parameter             ....  6.900000


General Settings:
 Integral files         IntName         .... 1661_+
 Hartree-Fock type      HFTyp           .... RHF
 Total Charge           Charge          ....    1
 Multiplicity           Mult            ....    1
 Number of Electrons    NEL             ....   54
 Basis Dimension        Dim             ....  289
 Nuclear Repulsion      ENuc            ....    332.8399055174 Eh

Convergence Acceleration:
 DIIS                   CNVDIIS         .... on
   Start iteration      DIISMaxIt       ....    12
   Startup error        DIISStart       ....  0.200000
   # of expansion vecs  DIISMaxEq       ....     5
   Bias factor          DIISBfac        ....   1.050
   Max. coefficient     DIISMaxC        ....  10.000
 Newton-Raphson         CNVNR           .... off
 SOSCF                  CNVSOSCF        .... on
   Start iteration      SOSCFMaxIt      ....   150
   Startup grad/error   SOSCFStart      ....  0.003300
 Level Shifting         CNVShift        .... on
   Level shift para.    LevelShift      ....    0.2500
   Turn off err/grad.   ShiftErr        ....    0.0010
 Zerner damping         CNVZerner       .... off
 Static damping         CNVDamp         .... on
   Fraction old density DampFac         ....    0.7000
   Max. Damping (<1)    DampMax         ....    0.9800
   Min. Damping (>=0)   DampMin         ....    0.0000
   Turn off err/grad.   DampErr         ....    0.1000
 Fernandez-Rico         CNVRico         .... off

SCF Procedure:
 Maximum # iterations   MaxIter         ....   125
 SCF integral mode      SCFMode         .... Direct
   Integral package                     .... LIBINT
 Reset frequeny         DirectResetFreq ....    20
 Integral Threshold     Thresh          ....  2.500e-11 Eh
 Primitive CutOff       TCut            ....  2.500e-12 Eh

Convergence Tolerance:
 Convergence Check Mode ConvCheckMode   .... Total+1el-Energy
 Energy Change          TolE            ....  1.000e-08 Eh
 1-El. energy change                    ....  1.000e-05 Eh
 Orbital Gradient       TolG            ....  1.000e-05
 Orbital Rotation angle TolX            ....  1.000e-05
 DIIS Error             TolErr          ....  5.000e-07


Diagonalization of the overlap matrix:
Smallest eigenvalue                        ... 8.704e-05
Time for diagonalization                   ...    1.070 sec
Threshold for overlap eigenvalues          ... 1.000e-08
Number of eigenvalues below threshold      ... 0
Time for construction of square roots      ...    0.019 sec
Total time needed                          ...    1.089 sec

-------------------
DFT GRID GENERATION
-------------------

General Integration Accuracy     IntAcc      ...  4.340
Radial Grid Type                 RadialGrid  ... Gauss-Chebyshev
Angular Grid (max. acc.)         AngularGrid ... Lebedev-194
Angular grid pruning method      GridPruning ... 3 (G Style)
Weight generation scheme         WeightScheme... Becke
Basis function cutoff            BFCut       ...    1.0000e-11
Integration weight cutoff        WCut        ...    1.0000e-14
Grids for H and He will be reduced by one unit

# of grid points (after initial pruning)     ...  41338 (   0.0 sec)
# of grid points (after weights+screening)   ...  37366 (   0.1 sec)
nearest neighbour list constructed           ...    0.0 sec
Grid point re-assignment to atoms done       ...    0.0 sec
Grid point division into batches done        ...    0.1 sec
Reduced shell lists constructed in    0.1 sec

Total number of grid points                  ...    37366
Total number of batches                      ...      592
Average number of points per batch           ...       63
Average number of grid points per atom       ...     1967
Average number of shells per batch           ...   104.85 (83.88%)
Average number of basis functions per batch  ...   255.76 (88.50%)
Average number of large shells per batch     ...    87.19 (83.15%)
Average number of large basis fcns per batch ...   210.57 (82.33%)
Maximum spatial batch extension              ...   1.95,  3.12,  2.49 au
Average spatial batch extension              ...   0.15,  0.16,  0.15 au

Time for grid setup =    0.472 sec

--------------
SCF ITERATIONS
--------------
ITER       Energy         Delta-E        Max-DP      RMS-DP      [F,P]     Damp
               ***  Starting incremental Fock matrix formation  ***
                      *** Initiating the SOSCF procedure ***
                      *** Re-Reading the Fockian *** 
                      *** Removing any level shift *** 
ITER      Energy       Delta-E        Grad      Rot      Max-DP    RMS-DP
  0   -290.10670630 -290.1067062964  0.000110  0.000110  0.000163  0.000004
               *** Restarting incremental Fock matrix formation ***
  1   -290.10670704  -0.0000007464  0.000033  0.000059  0.000068  0.000002
  2   -290.10670711  -0.0000000709  0.000004  0.000014  0.000016  0.000001
[...]
     18       0.010006   0.003759   0.000401  -0.000073   0.000181   0.000344
     19       0.016718   0.002008  -0.009608  -0.000328  -0.000117  -0.001021
     20      -0.006152   0.007474  -0.069115   0.000299  -0.000328  -0.000363
     21       0.379276   0.228531   0.023092  -0.281779   0.020037   0.110685
     22       0.190316   0.005635   0.022546   0.044574  -0.004036  -0.024638
     23      -0.184810  -0.125775  -0.011879  -0.578486   0.040697   0.233335
     24       0.245192   0.128160   0.023642  -0.258468   0.000425   0.041743
     25       0.200123   0.155354  -0.016118  -0.216195  -0.000321   0.034083
     26       0.426827   0.260688   0.013791   0.257668  -0.001831  -0.053344
     27      -0.313821  -0.160109  -0.007547   0.093198   0.003947   0.041729
     28      -0.022842  -0.054041   0.013721   0.575225   0.020817   0.259135
     29       0.123332   0.177576  -0.020228   0.246952   0.008275   0.106721
     30       0.064780   0.034553   0.019626  -0.002282  -0.027161  -0.124562
     31      -0.050420  -0.042314  -0.015783  -0.020400  -0.178717  -0.805959
     32       0.032484   0.030152   0.006064  -0.009730  -0.075649  -0.358213
     33      -0.103418   0.302654   0.013007  -0.003289  -0.470063   0.082290
     34      -0.046830   0.106929   0.001051   0.006618   0.734069  -0.126891
     35       0.119275  -0.495015  -0.023152   0.000846  -0.063666   0.013255
     36       0.009895  -0.233729  -0.013434   0.007417   0.285204  -0.096568
     37      -0.183027   0.507108   0.024267  -0.000737  -0.029261   0.007440
     38       0.017519  -0.178732  -0.009849  -0.007364  -0.327945   0.114357
     39      -0.035215  -0.008367  -0.009371   0.000117   0.000776   0.000927
     40      -0.060927   0.016965   0.009180  -0.000696   0.000426  -0.006804
     41       0.010649   0.005167  -0.005450  -0.000919   0.003489  -0.007384
     42       0.332275  -0.146332  -0.026930  -0.000290  -0.002468   0.000502
     43       0.128405  -0.057920  -0.015673   0.000203  -0.001289   0.000470
     44       0.068305  -0.029644  -0.011576   0.000106   0.002181  -0.000399
     45       0.202347  -0.096320  -0.023009  -0.000291  -0.003490   0.003300
     46      -0.288856   0.127817   0.030762  -0.000222  -0.000596   0.001653
     47      -0.083264   0.045633   0.005177  -0.000211   0.000071   0.000572
     48      -0.064954   0.012582  -0.011278   0.000235  -0.000658   0.000438
     49      -0.066495   0.020402   0.013183  -0.001996   0.001710  -0.008056
     50      -0.082638   0.029060   0.006349   0.000376  -0.001084   0.001540
     51      -0.106821  -0.003152  -0.298178   0.001386  -0.000561   0.001053
     52      -0.085034  -0.042847   0.387099   0.003119   0.001084  -0.001252
     53       0.009969  -0.024507   0.503891  -0.005969  -0.000242   0.001427
     54      -0.019055  -0.028658   0.278131   0.000757  -0.000720  -0.003647
     55      -0.029763   0.003999  -0.250382   0.000608   0.001926   0.011858
     56       0.022857  -0.036038   0.594851  -0.001533   0.002024   0.002105
                 48         49         50         51         52         53    
      0       0.023199   0.000859   0.013091   0.040728   0.000044  -0.000165
      1       0.033553   0.001360   0.020306   0.061856   0.000221  -0.000576
      2       0.075033   0.002010  -0.000370  -0.048469   0.000161  -0.000287
      3       0.004281   0.000288   0.001451   0.001986  -0.000256   0.000438
      4       0.028100   0.001699   0.012025   0.008322  -0.000241   0.000789
      5       0.013348   0.000722   0.005749   0.002286  -0.000389   0.000229
      6       0.011059  -0.006980  -0.064033   0.015487  -0.004654   0.000653
      7      -0.004184   0.003363   0.031977  -0.006471   0.000444   0.000465
      8      -0.011054   0.005183   0.050617  -0.013697   0.003020  -0.001060
      9      -0.000183  -0.001480   0.000324  -0.000187  -0.003306   0.001920
     10       0.000283  -0.000629  -0.002800   0.000683   0.055292  -0.008007
     11       0.000386   0.002007  -0.004456   0.000967   0.064320  -0.012155
     12      -0.000868   0.055095  -0.005672   0.001076  -0.004503   0.010525
     13       0.000604  -0.038692   0.003805  -0.000719  -0.011086   0.027897
     14       0.000201  -0.011027   0.000976  -0.000171  -0.003947   0.009643
     15      -0.000162  -0.001798   0.000135  -0.000124  -0.000363   0.002414
     16      -0.000347   0.000321  -0.000270  -0.000299  -0.016622  -0.079705
     17       0.000251  -0.002273   0.000568  -0.000022   0.003268   0.023823
     18       0.000320   0.000008  -0.000088  -0.000767  -0.000011  -0.000883
     19      -0.000726  -0.000144   0.000088  -0.000213   0.000272   0.002347
     20      -0.000050  -0.000546  -0.000363   0.000377  -0.000531   0.000075
     21      -0.296772  -0.007996  -0.017197   0.106279  -0.000251   0.000713
     22       0.058546   0.001732   0.007315  -0.005737  -0.000182  -0.000207
     23      -0.598442  -0.016530  -0.041137   0.195389  -0.000866   0.001733
     24       0.101007   0.000600  -0.112472  -0.545606   0.000089   0.000700
     25       0.085365   0.000616  -0.088701  -0.428271   0.000036   0.000950
     26      -0.077319   0.000127   0.112555   0.526649   0.000065  -0.000776
     27      -0.080539  -0.002694  -0.021831  -0.042542  -0.000177   0.000725
     28      -0.549836  -0.019089  -0.164103  -0.307960  -0.002503   0.005696
     29      -0.220038  -0.007710  -0.069694  -0.143580  -0.000718   0.002610
     30      -0.045737  -0.002584  -0.020299  -0.011373   0.000627  -0.001002
     31      -0.325091  -0.018341  -0.138746  -0.088063   0.002416  -0.005296
     32      -0.144896  -0.007892  -0.061468  -0.037307   0.000778  -0.002767
     33      -0.026286   0.026745   0.223874  -0.043161   0.011324  -0.000506
     34       0.045563  -0.036249  -0.364914   0.070790  -0.020996   0.001117
     35      -0.005742   0.004226   0.044072  -0.008237   0.002687   0.000160
     36      -0.110602   0.053469   0.537015  -0.142115   0.037373  -0.007522
     37       0.006663  -0.001758  -0.026126   0.007257   0.000785  -0.000295
     38       0.129801  -0.065020  -0.641753   0.171245  -0.041990   0.008910
     39       0.000589  -0.002780  -0.003427   0.000887   0.044058  -0.005702
     40      -0.006460   0.001260   0.039565  -0.009492  -0.631487   0.099657
     41      -0.007562   0.005092   0.046269  -0.010969  -0.728701   0.116838
     42       0.003900  -0.226948   0.024552  -0.004262  -0.014783   0.043669
     43      -0.012779   0.774460  -0.078778   0.014406   0.054875  -0.148588
     44      -0.003884   0.251141  -0.026672   0.004834   0.013275  -0.052091
     45       0.006079  -0.383471   0.042309  -0.008132   0.083229  -0.196025
     46       0.005230  -0.329764   0.034738  -0.006788   0.067093  -0.160597
     47       0.001574  -0.120205   0.012738  -0.002251   0.026919  -0.057412
     48      -0.000085  -0.002300   0.000432  -0.000417  -0.006732  -0.022123
     49       0.001680   0.011745   0.000964   0.001742   0.195571   0.897332
     50      -0.000776  -0.005476  -0.000072  -0.000501  -0.054626  -0.260410
     51       0.000841   0.000636   0.000057  -0.001658  -0.000456   0.004476
     52       0.004783  -0.000489   0.001511  -0.000194  -0.001531  -0.012727
     53      -0.004249   0.002426  -0.000929   0.002591  -0.000146   0.006190
     54      -0.001602  -0.000727   0.000037   0.000141   0.001202   0.006772
     55       0.005219   0.006057   0.001011   0.000136  -0.001599  -0.005004
     56       0.000850   0.007657  -0.001394   0.001175  -0.000903  -0.004623
                  54         55         56    
      0       0.000001   0.000043  -0.000403
      1      -0.000145  -0.000078   0.000184
      2      -0.000069   0.000607  -0.000657
      3       0.000146   0.000383  -0.000142
      4       0.000173  -0.000310  -0.000698
      5       0.000043  -0.000870   0.000298
      6       0.001377  -0.000248  -0.000030
      7      -0.000104  -0.000069   0.000157
      8      -0.000700   0.000323  -0.000345
      9       0.001758   0.000176   0.000030
     10      -0.009979   0.000092  -0.000343
     11      -0.012918   0.000633  -0.000084
     12      -0.041731  -0.000165  -0.000350
     13      -0.078040   0.001226   0.000509
     14      -0.027158   0.000465   0.000019
     15       0.000804  -0.000202  -0.000066
     16      -0.024304  -0.000156  -0.001615
     17       0.007545  -0.000538   0.000141
     18       0.000503   0.010884   0.056066
     19       0.000646  -0.014729  -0.056652
     20      -0.000088  -0.056136   0.017559
     21      -0.000050  -0.000757   0.001523
     22       0.000031  -0.000670   0.000936
     23      -0.000048  -0.004074   0.005463
     24      -0.000194  -0.002629   0.000700
     25      -0.000045  -0.000032  -0.000968
     26       0.000183   0.001269   0.000388
     27       0.000129   0.000183  -0.000843
     28       0.001516   0.000239   0.000574
     29       0.000645   0.000269   0.000028
     30       0.000211  -0.000223   0.000965
     31       0.000388   0.008697   0.007016
     32       0.000132   0.004505   0.002941
     33      -0.002385   0.000070   0.000722
     34       0.007864  -0.000049  -0.000845
     35      -0.001090  -0.000240   0.000322
     36      -0.008265   0.001251  -0.000308
     37       0.000494   0.000100  -0.000238
     38       0.008646   0.000170  -0.000149
     39      -0.010568   0.000299  -0.000256
     40       0.119087  -0.001895   0.000871
     41       0.137135  -0.000393   0.001082
     42      -0.139088   0.000754  -0.000335
     43       0.435018  -0.008344  -0.002715
     44       0.140657  -0.004388  -0.002071
     45       0.608108  -0.000740  -0.000522
     46       0.495582  -0.000429   0.000261
     47       0.181184   0.001043   0.000429
     48      -0.009614   0.003183  -0.000117
     49       0.272455  -0.000648   0.016348
     50      -0.078754   0.002193  -0.005813
     51       0.002888   0.323709  -0.428300
     52      -0.004472  -0.316623   0.417785
     53       0.004782   0.381689  -0.539960
     54       0.000414  -0.476203  -0.340872
     55       0.002424   0.515930   0.369727
     56       0.004032   0.390636   0.300815


-----------
IR SPECTRUM
-----------

 Mode    freq (cm**-1)   T**2         TX         TY         TZ
-------------------------------------------------------------------
   6:        80.98    1.893477  (  0.547177  -1.262563   0.002847)
   7:       252.99    0.543664  (  0.210061  -0.023252   0.706398)
   8:       269.31    0.528562  ( -0.341850   0.519614  -0.376433)
   9:       333.60    0.696851  (  0.359288   0.743431  -0.122778)
  10:       383.99    2.887530  (  1.665397  -0.215946  -0.259522)
  11:       450.68    3.871630  ( -1.746586   0.796556  -0.431933)
  12:       675.41    4.225606  ( -0.573703  -0.381452   1.936741)
  13:       698.26    1.030910  (  0.741738   0.337735   0.605532)
  14:       784.27    5.504074  ( -1.784969   0.042046   1.521904)
  15:       790.85   10.390058  (  1.481817  -1.206011   2.596115)
  16:       831.47    6.897805  ( -2.507925   0.741724   0.240757)
  17:       868.33    2.194547  (  1.307872  -0.604929  -0.343624)
  18:       897.96    0.356179  ( -0.532553  -0.144146   0.227570)
  19:       910.38    3.482767  (  1.182264  -1.438008  -0.130964)
  20:       933.28    4.159884  (  1.993077  -0.107770   0.419421)
  21:       976.54    0.745104  (  0.596281   0.378281  -0.496443)
  22:      1019.39    8.137288  ( -1.806071  -1.313665   1.774734)
  23:      1039.59    3.294365  ( -1.606297  -0.765400   0.358242)
  24:      1050.51    0.897937  (  0.115299  -0.477205   0.810505)
  25:      1083.35   11.923297  ( -0.010799  -0.603200   3.399902)
  26:      1097.23    1.038848  (  0.927781  -0.292321   0.304335)
  27:      1121.99    0.615426  (  0.068145   0.497246  -0.602933)
  28:      1139.60    3.355569  ( -0.829622  -1.291642   0.999479)
  29:      1166.88    4.335746  (  0.297017  -2.034335   0.330164)
  30:      1218.34    1.992897  (  1.244693   0.340963  -0.572172)
  31:      1244.43    1.528881  (  0.636695   0.793260  -0.703021)
  32:      1266.19   22.990804  ( -4.235472  -2.044563   0.933457)
  33:      1302.01    8.991441  ( -1.669454  -1.704244   1.816568)
  34:      1328.03    5.270870  (  1.658690   0.909410   1.300996)
  35:      1347.62   28.490588  ( -3.974666  -3.486677  -0.731915)
  36:      1373.70    8.930705  ( -2.264562  -1.948184   0.083926)
  37:      1390.58    5.537741  ( -1.659965  -1.611485   0.430547)
  38:      1418.00    9.357171  (  2.756279   0.859022  -1.011027)
  39:      1422.68   14.596872  ( -2.606708   2.658905   0.855668)
  40:      1481.82    9.471060  (  1.264319  -1.013065  -2.616535)
  41:      1485.08   10.890177  (  0.606370   2.823278  -1.597370)
  42:      1490.33    8.707501  (  1.944487  -0.704387   2.104830)
  43:      1500.73    9.754775  ( -0.467032   2.959024  -0.883648)
  44:      1645.50   66.172173  ( -0.997834   1.321871   7.964242)
  45:      3055.10    2.737596  (  0.130298  -1.271751   1.050365)
  46:      3089.31    3.530877  (  0.280267  -1.668040   0.818516)
  47:      3112.32    1.905241  ( -0.183304   1.367774  -0.028881)
  48:      3134.47    7.222340  (  1.273668   1.184046   2.048938)
  49:      3143.31    1.735051  ( -0.549695  -0.846996  -0.845863)
  50:      3147.76    1.512152  ( -0.653975   1.005122   0.272394)
  51:      3154.36    0.543624  ( -0.162443   0.714034  -0.085978)
  52:      3219.29    0.371763  (  0.058543  -0.115277  -0.595858)
  53:      3231.89    0.906007  ( -0.072057   0.949110  -0.002065)
  54:      3244.44    1.346500  (  0.740106   0.842928   0.297012)
  55:      3450.80   45.377935  ( -1.049585   0.843450   6.600371)
  56:      3509.30   67.101956  ( -5.693989   5.494594  -2.118933)

The first frequency considered to be a vibration is 6
The total number of vibrations considered is 51


--------------------------
THERMOCHEMISTRY AT 298.15K
--------------------------

Temperature         ... 298.15 K
Pressure            ... 1.00 atm
Total Mass          ... 98.17 AMU

Throughout the following assumptions are being made:
  (1) The electronic state is orbitally nondegenerate
  (2) There are no thermally accessible electronically excited states
  (3) Hindered rotations indicated by low frequency modes) are not
      treated as such but are treated as vibrations and this may
      case some error
  (4) All equations used are the standard statistical mechanics
      equations for an ideal gas
  (5) All vibrations are strinctly harmonic


------------
INNER ENERGY
------------

The inner energy is: U= E(el) + E(ZPE) + E(vib) + E(rot) + E(trans)
    E(el)   - is the total energy from the electronic structure calculation
              = E(kin-el) + E(nuc-el) + E(el-el) + E(nuc-nuc)
    E(ZPE)  - the the zero temperature vibrational energy from the frequency calculation
    E(vib)  - the the finite temperature correction to E(ZPE) due to population
              of excietd vibrational states
    E(rot)  - is the rotational thermal energy
    E(trans)- is the translational thermal energy

Summary of contributions to the inner energy U:
Electronic energy                ...   -290.10602367 Eh
Zero point energy                ...      0.17829905 Eh     111.88 kcal/mol
Thermal vibrational correction   ...      0.00374462 Eh       2.35 kcal/mol
Thermal rotational correction    ...      0.00141627 Eh       0.89 kcal/mol
Thermal translational correction ...      0.00141627 Eh       0.89 kcal/mol
-----------------------------------------------------------------------
Total thermal energy                   -289.92114746 Eh


Summary of corrections to the electronic energy:
(perhaps to be used in another calculation)
Total thermal correction                  0.00657716 Eh       4.13 kcal/mol
Non-thermal (ZPE) correction              0.17829905 Eh     111.88 kcal/mol
-----------------------------------------------------------------------
Total correction                          0.18487622 Eh     116.01 kcal/mol


--------
ENTHALPY
--------

The enthalpy is H = U + kB*T
                kB is Boltzmann's constant
Total free energy                 ...   -289.92114746 Eh 
Thermal Enthalpy correction       ...      0.00094421 Eh       0.59 kcal/mol
-----------------------------------------------------------------------
Total Enthalpy                    ...   -289.92020325 Eh


-------
ENTROPY
-------

The entropy contributions are T*S = T*(S(el)+S(vib)+S(rot)+S(trans)
     S(el)   - electronic entropy
     S(vib)  - vibrational entropy
     S(rot)  - rotational entropy
     S(trans)- translational entropy
The entropies will be listed as mutliplied by the temperature to get
units of energy

Electronic entropy                ...      0.00000000 Eh      0.00 kcal/mol
Vibrational entropy               ...      0.00617378 Eh      3.87 kcal/mol
Rotational entropy                ...      0.01179636 Eh      7.40 kcal/mol
Translational entropy             ...      0.01884507 Eh     11.83 kcal/mol
-----------------------------------------------------------------------
Final entropy term                ...      0.03681520 Eh     23.10 kcal/mol


CAUTION: The rotational entropy is not quite correctly treated here
         because it includes a symmetry number that is not yet correctly
         implemented in ORCA!
For a nonlinear molecule the correct rotational entropy is:
    S(rot) = R*(ln(qrot/sn)+1.5)
    R    = 8.31441 J/mol/K = 1.987191683e-3 kcal/mol/K
    qrot = 178502.4363915
    sn is the rotational symmetry number. We have assumed 3 here
       if it is different for your molecule then you should correct
       the printed rotational entropy by manually evaluating the equation
       as given above

For convenience we print out the resulting values for sn=1 - 12:
 sn= 1  qrot/sn=  178502.4364 T*S(rot)=     8.05 kcal/mol T*S(tot)=    23.75 kcal/mol
 sn= 2  qrot/sn=   89251.2182 T*S(rot)=     7.64 kcal/mol T*S(tot)=    23.34 kcal/mol
 sn= 3  qrot/sn=   59500.8121 T*S(rot)=     7.40 kcal/mol T*S(tot)=    23.10 kcal/mol
 sn= 4  qrot/sn=   44625.6091 T*S(rot)=     7.23 kcal/mol T*S(tot)=    22.93 kcal/mol
 sn= 5  qrot/sn=   35700.4873 T*S(rot)=     7.10 kcal/mol T*S(tot)=    22.80 kcal/mol
 sn= 6  qrot/sn=   29750.4061 T*S(rot)=     6.99 kcal/mol T*S(tot)=    22.69 kcal/mol
 sn= 7  qrot/sn=   25500.3481 T*S(rot)=     6.90 kcal/mol T*S(tot)=    22.60 kcal/mol
 sn= 8  qrot/sn=   22312.8045 T*S(rot)=     6.82 kcal/mol T*S(tot)=    22.52 kcal/mol
 sn= 9  qrot/sn=   19833.6040 T*S(rot)=     6.75 kcal/mol T*S(tot)=    22.45 kcal/mol
 sn=10  qrot/sn=   17850.2436 T*S(rot)=     6.69 kcal/mol T*S(tot)=    22.39 kcal/mol
 sn=11  qrot/sn=   16227.4942 T*S(rot)=     6.63 kcal/mol T*S(tot)=    22.33 kcal/mol
 sn=12  qrot/sn=   14875.2030 T*S(rot)=     6.58 kcal/mol T*S(tot)=    22.28 kcal/mol


-------------------
GIBBS FREE ENTHALPY
-------------------

The Gibbs free enthalpy is G = H - T*S

Total enthalpy                    ...   -289.92020325 Eh 
Total entropy correction          ...     -0.03681520 Eh    -23.10 kcal/mol
-----------------------------------------------------------------------
Final Gibbs free enthalpy         ...   -289.95701845 Eh

For completeness - the Gibbs free enthalpy minus the electronic energy
G-E(el)                           ...      0.14900522 Eh     93.50 kcal/mol


Timings for individual modules:

Sum of individual times         ...     3106.364 sec (=  51.773 min)
GTO integral calculation        ...        7.704 sec (=   0.128 min)   0.2 %
SCF iterations                  ...      280.701 sec (=   4.678 min)   9.0 %
SCF Gradient evaluation         ...      132.167 sec (=   2.203 min)   4.3 %
Geometry relaxation             ...        0.197 sec (=   0.003 min)   0.0 %
Analytical frequency calculation...     2685.595 sec (=  44.760 min)  86.5 %
                             ****ORCA TERMINATED NORMALLY****
TOTAL RUN TIME: 0 days 0 hours 51 minutes 48 seconds 89 msec
