
                                 *****************
                                 * O   R   C   A *
                                 *****************

           --- An Ab Initio, DFT and Semiempirical electronic structure package ---

                  #######################################################
                  #                        -***-                        #
                  #  Department of molecular theory and spectroscopy    #
                  #              Directorship: Frank Neese              #
                  # Max Planck Institute for Chemical Energy Conversion #
                  #                  D-45470 Muelheim/Ruhr              #
                  #                       Germany                       #
                  #                                                     #
                  #                  All rights reserved                #
                  #                        -***-                        #
                  #######################################################


                         Program Version 3.0.3 - RELEASE   -


 With contributions from (in alphabetic order):
   Ute Becker             : Parallelization
   Dmytro Bykov           : SCF Hessian
   Dmitry Ganyushin       : Spin-Orbit,Spin-Spin,Magnetic field MRCI
   Andreas Hansen         : Spin unrestricted coupled pair/coupled cluster methods
   Dimitrios Liakos       : Extrapolation schemes; parallel MDCI
   Robert Izsak           : Overlap fitted RIJCOSX, COSX-SCS-MP3
   Christian Kollmar      : KDIIS, OOCD, Brueckner-CCSD(T), CCSD density
   Simone Kossmann        : Meta GGA functionals, TD-DFT gradient, OOMP2, MP2 Hessian
   Taras Petrenko         : DFT Hessian,TD-DFT gradient, ASA and ECA modules, normal mode analysis, Resonance Raman, ABS, FL, XAS/XES, NRVS
   Christoph Reimann      : Effective Core Potentials
   Michael Roemelt        : Restricted open shell CIS
   Christoph Riplinger    : Improved optimizer, TS searches, QM/MM, DLPNO-CCSD
   Barbara Sandhoefer     : DKH picture change effects
   Igor Schapiro          : Molecular dynamics
   Kantharuban Sivalingam : CASSCF convergence, NEVPT2
   Boris Wezisla          : Elementary symmetry handling
   Frank Wennmohs         : Technical directorship


 We gratefully acknowledge several colleagues who have allowed us to
 interface, adapt or use parts of their codes:
   Stefan Grimme, W. Hujo, H. Kruse, T. Risthaus : VdW corrections, initial TS optimization,
                                                   DFT functionals, gCP
   Ed Valeev                                     : LibInt (2-el integral package), F12 methods
   Garnet Chan, S. Sharma, R. Olivares           : DMRG
   Ulf Ekstrom                                   : XCFun DFT Library
   Mihaly Kallay                                 : mrcc  (arbitrary order and MRCC methods)
   Andreas Klamt, Michael Diedenhofen            : otool_cosmo (COSMO solvation model)
   Frank Weinhold                                : gennbo (NPA and NBO analysis)
   Christopher J. Cramer and Donald G. Truhlar   : smd solvation model


 Your calculation uses the libint2 library for the computation of 2-el integrals
 For citations please refer to: http://libint.valeyev.net

 This ORCA versions uses:
   CBLAS   interface :  Fast vector & matrix operations
   LAPACKE interface :  Fast linear algebra routines
   SCALAPACK package :  Parallel linear algebra routines


Your calculation utilizes the basis: Ahlrichs-TZV
Cite in your paper:
H - Kr: A. Schaefer, H. Horn and R. Ahlrichs, J. Chem. Phys. 97, 2571 (1992).

The def2-TZV basis will be loaded
Cite in your paper:
 	F. Weigend, R. Ahlrichs, Phys. Chem. Chem. Phys. 2005, 7, 3297.

================================================================================
                                        WARNINGS
                       Please study these warnings very carefully!
================================================================================
Now building the actual basis set
WARNING: Geometry optimizations can change the point-group symmetry!

WARNING: Geometry Optimization
  ===> : Switching off AutoStart
         For restart on a previous wavefunction, please use MOREAD


INFO   : the flag for use of LIBINT has been found!

================================================================================
                                       INPUT FILE
================================================================================
NAME = 1759_+.inp
|  1> ! NORI PBE0 def2-TZVP UseSym TightOPT Freq TightSCF Grid3 FinalGrid5 XYZFile
|  2> % pal
|  3>     nprocs 8
|  4> end
|  5> %method
|  6>     SymThresh 5.0e-2
|  7> end
|  8> % geom 
|  9>     MaxIter 10
| 10> end 
| 11> % maxcore 2000
| 12> % output
| 13>     printlevel mini
| 14>     print[ P_Basis ] 0
| 15>     print[ P_SCFInfo ] 1
| 16>     print[ P_SCFIterInfo ] 1
| 17>     print[ P_OrbEn ] 0
| 18>     print[ P_Cartesian ] 0
| 19> end
| 20> % elprop
| 21>     Dipole false
| 22> end
| 23> *xyz 1 1
| 24>  C        0.6249005424    -0.1063159045    -0.3602049173 
| 25>  C        2.1090836030    -0.0637370659    -0.0986012379 
| 26>  C        2.5171789938    -0.0806633724     1.3579940002 
| 27>  C        2.0688422517     1.1736662719     2.0776527213 
| 28>  N        2.5176833796     1.1468564098     3.5178500469 
| 29>  C        3.0115084431    -0.7877581831    -1.0515513358 
| 30>  C        2.9859649478     0.7098285016    -1.0446525403 
| 31>  H        0.4298686610    -0.1497109280    -1.4326008877 
| 32>  H        0.1043590350     0.7789528625     0.0186101892 
| 33>  H        0.1665232178    -0.9910673655     0.0920091734 
| 34>  H        3.6083068703    -0.1665373818     1.4234284523 
| 35>  H        2.0888551273    -0.9643280308     1.8498884494 
| 36>  H        0.9840710870     1.2773285946     2.1003358369 
| 37>  H        2.4981150812     2.0723134583     1.6329185680 
| 38>  H        2.1338831666     0.3318080245     4.0012107678 
| 39>  H        2.2223139051     1.9821235052     4.0273764872 
| 40>  H        3.5363280887     1.0847982587     3.5808112659 
| 41>  H        3.8919701275    -1.2835461056    -0.6601221308 
| 42>  H        2.5459880150    -1.3020394843    -1.8829098624 
| 43>  H        2.5086701409     1.2186006158    -1.8727917391 
| 44>  H        3.8562653153     1.2237873189    -0.6511613071 
| 45> *
| 46> 
| 47>                          ****END OF INPUT****
================================================================================

The point group is C1 - hence turning off symmetry
If this is a round-off problem, please increase the symmetry
        detection tolerance (%method SymThresh)


                       *****************************
                       * Geometry Optimization Run *
                       *****************************

Geometry optimization settings:
Update method            Update   .... BFGS
Choice of coordinates    CoordSys .... Redundant Internals
Initial Hessian          InHess   .... Almoef's Model

Convergence Tolerances:
Energy Change            TolE     ....  1.0000e-06 Eh
Max. Gradient            TolMAXG  ....  1.0000e-04 Eh/bohr
RMS Gradient             TolRMSG  ....  3.0000e-05 Eh/bohr
Max. Displacement        TolMAXD  ....  1.0000e-03 bohr
RMS Displacement         TolRMSD  ....  6.0000e-04 bohr

------------------------------------------------------------------------------
                        ORCA OPTIMIZATION COORDINATE SETUP
------------------------------------------------------------------------------

The optimization will be done in new redundant internal coordinates
Making redundant internal coordinates   ...  (new redundants) done
Evaluating the initial hessian          ...  (Almloef) done
Evaluating the coordinates              ...  done
Calculating the B-matrix                .... done
Calculating the G-matrix                .... done
Diagonalizing the G-matrix              .... done
Small eigenvalue found = 2.379e-02
The first mode is                       ....   66
The number of degrees of freedom        ....   57

    -----------------------------------------------------------------
                    Redundant Internal Coordinates


    -----------------------------------------------------------------
         Definition                    Initial Value    Approx d2E/dq
    -----------------------------------------------------------------
      1. B(C   1,C   0)                  1.5077         0.405522   
      2. B(C   2,C   1)                  1.5128         0.397973   
      3. B(C   3,C   2)                  1.5140         0.396161   
      4. B(N   4,C   3)                  1.5088         0.361749   
      5. B(C   5,C   1)                  1.4989         0.418794   
      6. B(C   6,C   5)                  1.4978         0.420454   
      7. B(C   6,C   1)                  1.5041         0.410855   
      8. B(H   7,C   0)                  1.0908         0.358977   
      9. B(H   8,C   0)                  1.0946         0.354056   
     10. B(H   9,C   0)                  1.0943         0.354516   
     11. B(H  10,C   2)                  1.0965         0.351660   
     12. B(H  11,C   2)                  1.0983         0.349273   
     13. B(H  12,C   3)                  1.0899         0.360167   
     14. B(H  13,C   3)                  1.0907         0.359173   
     15. B(H  14,N   4)                  1.0224         0.413482   
     16. B(H  15,N   4)                  1.0220         0.414012   
     17. B(H  16,N   4)                  1.0225         0.413327   
     18. B(H  17,C   5)                  1.0836         0.368638   
     19. B(H  18,C   5)                  1.0828         0.369817   
     20. B(H  19,C   6)                  1.0828         0.369740   
     21. B(H  20,C   6)                  1.0846         0.367281   
     22. A(C   1,C   0,H   9)          111.3152         0.327884   
     23. A(H   8,C   0,H   9)          108.1610         0.289358   
     24. A(C   1,C   0,H   7)          110.3472         0.328561   
     25. A(H   7,C   0,H   9)          107.4103         0.289985   
     26. A(C   1,C   0,H   8)          112.6596         0.327813   
     27. A(H   7,C   0,H   8)          106.7005         0.289926   
     28. A(C   2,C   1,C   6)          117.0072         0.373365   
     29. A(C   2,C   1,C   5)          116.3809         0.374600   
     30. A(C   0,C   1,C   6)          118.6396         0.374577   
     31. A(C   0,C   1,C   5)          117.9516         0.375817   
     32. A(C   0,C   1,C   2)          115.6149         0.372525   
     33. A(C   5,C   1,C   6)           59.8376         0.376666   
     34. A(H  10,C   2,H  11)          107.3584         0.288376   
     35. A(C   3,C   2,H  11)          109.7671         0.325824   
     36. A(C   3,C   2,H  10)          109.3418         0.326190   
     37. A(C   1,C   2,H  10)          109.0742         0.326435   
     38. A(C   1,C   2,H  11)          109.5743         0.326069   
     39. A(C   1,C   2,C   3)          111.6245         0.371031   
     40. A(H  12,C   3,H  13)          108.7737         0.290730   
     41. A(N   4,C   3,H  13)          106.6651         0.320554   
     42. A(C   2,C   3,H  13)          111.8534         0.327327   
     43. A(C   2,C   3,N   4)          110.5433         0.362733   
     44. A(N   4,C   3,H  12)          106.1350         0.320699   
     45. A(C   2,C   3,H  12)          112.5446         0.327476   
     46. A(C   3,N   4,H  16)          110.8691         0.325247   
     47. A(H  14,N   4,H  15)          107.8990         0.298955   
     48. A(C   3,N   4,H  15)          112.0487         0.325336   
     49. A(C   3,N   4,H  14)          110.7192         0.325267   
     50. A(H  15,N   4,H  16)          107.8681         0.298937   
     51. A(H  14,N   4,H  16)          107.2473         0.298876   
     52. A(C   1,C   5,C   6)           60.2540         0.378174   
     53. A(H  17,C   5,H  18)          114.1656         0.293139   
     54. A(C   6,C   5,H  18)          118.1061         0.332161   
     55. A(C   1,C   5,H  18)          117.3055         0.331944   
     56. A(C   6,C   5,H  17)          118.0116         0.331985   
     57. A(C   1,C   5,H  17)          118.7202         0.331768   
     58. A(H  19,C   6,H  20)          114.1111         0.292959   
     59. A(C   5,C   6,H  20)          117.5015         0.331783   
     60. A(C   1,C   6,H  20)          118.9018         0.330517   
     61. A(C   1,C   6,C   5)           59.9085         0.376924   
     62. A(C   5,C   6,H  19)          118.2803         0.332150   
     63. A(C   1,C   6,H  19)          117.7568         0.330882   
     64. D(C   6,C   1,C   0,H   7)     36.6381         0.013035   
     65. D(C   2,C   1,C   0,H   8)     64.1790         0.013035   
     66. D(C   6,C   1,C   0,H   8)    -82.5023         0.013035   
     67. D(C   5,C   1,C   0,H   8)   -151.5053         0.013035   
     68. D(C   5,C   1,C   0,H   7)    -32.3648         0.013035   
     69. D(C   5,C   1,C   0,H   9)     86.7957         0.013035   
     70. D(C   6,C   1,C   0,H   9)    155.7987         0.013035   
     71. D(C   2,C   1,C   0,H   7)   -176.6806         0.013035   
     72. D(C   2,C   1,C   0,H   9)    -57.5200         0.013035   
     73. D(H  10,C   2,C   1,C   6)    -39.3922         0.012571   
     74. D(C   3,C   2,C   1,C   6)     81.5418         0.012571   
     75. D(H  10,C   2,C   1,C   5)     28.4776         0.012571   
     76. D(C   3,C   2,C   1,C   0)    -65.6998         0.012571   
     77. D(H  11,C   2,C   1,C   6)   -156.6500         0.012571   
     78. D(H  11,C   2,C   1,C   5)    -88.7802         0.012571   
     79. D(H  11,C   2,C   1,C   0)     56.1084         0.012571   
     80. D(C   3,C   2,C   1,C   5)    149.4116         0.012571   
     81. D(H  10,C   2,C   1,C   0)    173.3661         0.012571   
     82. D(H  13,C   3,C   2,H  10)     60.8870         0.012461   
     83. D(H  13,C   3,C   2,C   1)    -59.8910         0.012461   
     84. D(H  12,C   3,C   2,H  11)    -58.7730         0.012461   
     85. D(H  12,C   3,C   2,H  10)   -176.2982         0.012461   
     86. D(H  12,C   3,C   2,C   1)     62.9239         0.012461   
     87. D(N   4,C   3,C   2,H  11)     59.7100         0.012461   
     88. D(H  13,C   3,C   2,H  11)    178.4122         0.012461   
     89. D(N   4,C   3,C   2,H  10)    -57.8152         0.012461   
     90. D(N   4,C   3,C   2,C   1)   -178.5932         0.012461   
     91. D(H  15,N   4,C   3,C   2)   -179.6922         0.012025   
     92. D(H  14,N   4,C   3,H  13)    179.0085         0.012025   
     93. D(H  14,N   4,C   3,C   2)    -59.1804         0.012025   
     94. D(H  14,N   4,C   3,H  12)     63.1393         0.012025   
     95. D(H  16,N   4,C   3,H  13)    -62.0798         0.012025   
     96. D(H  16,N   4,C   3,H  12)   -177.9490         0.012025   
     97. D(H  16,N   4,C   3,C   2)     59.7313         0.012025   
     98. D(H  15,N   4,C   3,H  13)     58.4967         0.012025   
     99. D(H  15,N   4,C   3,H  12)    -57.3725         0.012025   
    100. D(H  18,C   5,C   1,C   6)   -108.3986         0.013879   
    101. D(H  18,C   5,C   1,C   0)      0.2159         0.013879   
    102. D(H  17,C   5,C   1,C   6)    107.6790         0.013879   
    103. D(H  17,C   5,C   1,C   2)      0.3396         0.013879   
    104. D(H  17,C   5,C   1,C   0)   -143.7065         0.013879   
    105. D(H  18,C   5,C   1,C   2)    144.2620         0.013879   
    106. D(C   6,C   5,C   1,C   2)   -107.3394         0.013879   
    107. D(C   6,C   5,C   1,C   0)    108.6145         0.013879   
    108. D(H  20,C   6,C   5,H  18)   -143.7632         0.013986   
    109. D(H  20,C   6,C   5,C   1)    109.1522         0.013986   
    110. D(H  19,C   6,C   5,H  18)     -0.3405         0.013986   
    111. D(H  19,C   6,C   5,H  17)    143.7363         0.013986   
    112. D(C   1,C   6,C   5,H  18)    107.0845         0.013986   
    113. D(C   1,C   6,C   5,H  17)   -108.8386         0.013986   
    114. D(H  20,C   6,C   1,C   5)   -106.8409         0.013370   
    115. D(H  20,C   6,C   1,C   2)     -0.5434         0.013370   
    116. D(H  20,C   6,C   1,C   0)    145.6814         0.013370   
    117. D(H  19,C   6,C   5,C   1)   -107.4250         0.013986   
    118. D(H  19,C   6,C   1,C   5)    108.2895         0.013370   
    119. D(H  19,C   6,C   1,C   2)   -145.4129         0.013370   
    120. D(H  19,C   6,C   1,C   0)      0.8119         0.013370   
    121. D(H  20,C   6,C   5,H  17)      0.3136         0.013986   
    122. D(C   5,C   6,C   1,C   2)    106.2975         0.013370   
    123. D(C   5,C   6,C   1,C   0)   -107.4777         0.013370   
    -----------------------------------------------------------------

Number of atoms                         .... 21
Number of degrees of freedom            .... 123

         *************************************************************
         *                GEOMETRY OPTIMIZATION CYCLE   1            *
         *************************************************************


           ************************************************************
           *        Program running with 8 parallel MPI-processes     *
           *              working on a common directory               *
           ************************************************************
           ************************************************************
           *              Shut down parallel processing               *
           ************************************************************


           ************************************************************
           *        Program running with 8 parallel MPI-processes     *
           *              working on a common directory               *
           ************************************************************
------------
SCF SETTINGS
------------
Hamiltonian:
 Density Functional     Method          .... DFT(GTOs)
 Exchange Functional    Exchange        .... PBE
   PBE kappa parameter  XKappa          ....  0.804000
 Correlation Functional Correlation     .... PBE
 LDA part of GGA corr.  LDAOpt          .... PW91-LDA
 Gradients option       PostSCFGGA      .... off
 Hybrid DFT is turned on
   Fraction HF Exchange ScalHFX         ....  0.250000
   Scaling of DF-GGA-X  ScalDFX         ....  0.750000
   Scaling of DF-GGA-C  ScalDFC         ....  1.000000
   Scaling of DF-LDA-C  ScalLDAC        ....  1.000000
   Perturbative correction              ....  0.000000
   NL short-range parameter             ....  6.900000


General Settings:
 Integral files         IntName         .... 1759_+
 Hartree-Fock type      HFTyp           .... RHF
 Total Charge           Charge          ....    1
 Multiplicity           Mult            ....    1
 Number of Electrons    NEL             ....   56
 Basis Dimension        Dim             ....  301
 Nuclear Repulsion      ENuc            ....    328.6972940427 Eh

Convergence Acceleration:
 DIIS                   CNVDIIS         .... on
   Start iteration      DIISMaxIt       ....    12
   Startup error        DIISStart       ....  0.200000
   # of expansion vecs  DIISMaxEq       ....     5
   Bias factor          DIISBfac        ....   1.050
   Max. coefficient     DIISMaxC        ....  10.000
 Newton-Raphson         CNVNR           .... off
 SOSCF                  CNVSOSCF        .... on
   Start iteration      SOSCFMaxIt      ....   150
   Startup grad/error   SOSCFStart      ....  0.003300
 Level Shifting         CNVShift        .... on
   Level shift para.    LevelShift      ....    0.2500
   Turn off err/grad.   ShiftErr        ....    0.0010
 Zerner damping         CNVZerner       .... off
 Static damping         CNVDamp         .... on
   Fraction old density DampFac         ....    0.7000
   Max. Damping (<1)    DampMax         ....    0.9800
   Min. Damping (>=0)   DampMin         ....    0.0000
   Turn off err/grad.   DampErr         ....    0.1000
 Fernandez-Rico         CNVRico         .... off

SCF Procedure:
 Maximum # iterations   MaxIter         ....   125
 SCF integral mode      SCFMode         .... Direct
   Integral package                     .... LIBINT
 Reset frequeny         DirectResetFreq ....    20
 Integral Threshold     Thresh          ....  2.500e-11 Eh
 Primitive CutOff       TCut            ....  2.500e-12 Eh

Convergence Tolerance:
 Convergence Check Mode ConvCheckMode   .... Total+1el-Energy
 Energy Change          TolE            ....  1.000e-08 Eh
 1-El. energy change                    ....  1.000e-05 Eh
 Orbital Gradient       TolG            ....  1.000e-05
 Orbital Rotation angle TolX            ....  1.000e-05
 DIIS Error             TolErr          ....  5.000e-07


Diagonalization of the overlap matrix:
Smallest eigenvalue                        ... 9.691e-05
Time for diagonalization                   ...    0.975 sec
Threshold for overlap eigenvalues          ... 1.000e-08
Number of eigenvalues below threshold      ... 0
Time for construction of square roots      ...    0.030 sec
Total time needed                          ...    1.005 sec

-------------------
DFT GRID GENERATION
-------------------

General Integration Accuracy     IntAcc      ...  4.340
Radial Grid Type                 RadialGrid  ... Gauss-Chebyshev
Angular Grid (max. acc.)         AngularGrid ... Lebedev-194
Angular grid pruning method      GridPruning ... 3 (G Style)
Weight generation scheme         WeightScheme... Becke
Basis function cutoff            BFCut       ...    1.0000e-11
Integration weight cutoff        WCut        ...    1.0000e-14
Grids for H and He will be reduced by one unit

# of grid points (after initial pruning)     ...  44398 (   0.0 sec)
# of grid points (after weights+screening)   ...  40167 (   0.1 sec)
nearest neighbour list constructed           ...    0.0 sec
Grid point re-assignment to atoms done       ...    0.0 sec
Grid point division into batches done        ...    0.1 sec
Reduced shell lists constructed in    0.3 sec

Total number of grid points                  ...    40167
Total number of batches                      ...      639
Average number of points per batch           ...       62
Average number of grid points per atom       ...     1913
Average number of shells per batch           ...   109.89 (82.62%)
Average number of basis functions per batch  ...   259.99 (86.37%)
Average number of large shells per batch     ...    90.64 (82.49%)
Average number of large basis fcns per batch ...   215.88 (83.03%)
Maximum spatial batch extension              ...   2.93,  2.94,  2.25 au
Average spatial batch extension              ...   0.15,  0.16,  0.15 au

Time for grid setup =    0.640 sec

Loading Hartree-Fock densities                     ... done
Calculating cut-offs                               ... done
Setting up the integral package                    ... done
Initializing the effective Hamiltonian             ... done
Starting the Coulomb interaction                   ... done (   0.1 sec)
Reading the grid                                   ... done
Mapping shells                                     ... done
Starting the XC term evaluation                    ... done (   0.5 sec)
  promolecular density results
     # of electrons  =     56.989612416
     EX              =    -41.439383522
     EC              =     -1.868105714
     EX+EC           =    -43.307489237
Transforming the Hamiltonian                       ... done (   0.0 sec)
Diagonalizing the Hamiltonian                      ... done (   0.9 sec)
Back transforming the eigenvectors                 ... done (   0.0 sec)
Now organizing SCF variables                       ... done
--------------
SCF ITERATIONS
--------------
ITER       Energy         Delta-E        Max-DP      RMS-DP      [F,P]     Damp
               ***  Starting incremental Fock matrix formation  ***
  0   -291.0977366959   0.000000000000 0.03308109  0.00086424  0.1815345 0.7000
  1   -291.1911408093  -0.093404113371 0.02252196  0.00068279  0.0970186 0.7000
                               ***Turning on DIIS***
  2   -291.2315084025  -0.040367593206 0.04015131  0.00131978  0.0387224 0.0000
  3   -291.2890096621  -0.057501259581 0.01466325  0.00043697  0.0516383 0.0000
  4   -291.3045621480  -0.015552485975 0.00686140  0.00017791  0.0090479 0.0000
                      *** Initiating the SOSCF procedure ***
                           *** Shutting down DIIS ***
                      *** Re-Reading the Fockian *** 
                      *** Removing any level shift *** 
ITER      Energy       Delta-E        Grad      Rot      Max-DP    RMS-DP
  5   -291.30515851  -0.0005963626  0.000660  0.000660  0.003297  0.000078
               *** Restarting incremental Fock matrix formation ***
  6   -291.30519857  -0.0000400601  0.000239  0.000521  0.002265  0.000052
  7   -291.30520046  -0.0000018908  0.000235  0.000290  0.000432  0.000011
  8   -291.30520288  -0.0000024178  0.000049  0.000086  0.000281  0.000006
  9   -291.30520290  -0.0000000192  0.000038  0.000032  0.000043  0.000001
 10   -291.30520296  -0.0000000571  0.000003  0.000010  0.000037  0.000001
                  ***Gradient check signals convergence***
              ***Rediagonalizing the Fockian in SOSCF/NRSCF***

               *****************************************************
               *                     SUCCESS                       *
               *           SCF CONVERGED AFTER  11 CYCLES          *
               *****************************************************

Setting up the final grid:

General Integration Accuracy     IntAcc      ...  5.010
Radial Grid Type                 RadialGrid  ... Gauss-Chebyshev
Angular Grid (max. acc.)         AngularGrid ... Lebedev-434
Angular grid pruning method      GridPruning ... 3 (G Style)
Weight generation scheme         WeightScheme... Becke
Basis function cutoff            BFCut       ...    1.0000e-11
Integration weight cutoff        WCut        ...    1.0000e-14
Grids for H and He will be reduced by one unit

# of grid points (after initial pruning)     ... 168466 (   0.0 sec)
# of grid points (after weights+screening)   ... 150441 (   2.0 sec)
nearest neighbour list constructed           ...    0.0 sec
Grid point re-assignment to atoms done       ...    0.0 sec
Grid point division into batches done        ...    1.2 sec
Reduced shell lists constructed in    1.5 sec

Total number of grid points                  ...   150441
Total number of batches                      ...     2360
Average number of points per batch           ...       63
Average number of grid points per atom       ...     7164
Average number of shells per batch           ...   108.26 (81.40%)
Average number of basis functions per batch  ...   256.63 (85.26%)
Average number of large shells per batch     ...    88.11 (81.39%)
Average number of large basis fcns per batch ...   209.01 (81.44%)
Maximum spatial batch extension              ...   2.34,  3.23,  2.57 au
Average spatial batch extension              ...   0.10,  0.10,  0.10 au

Final grid set up in    3.9 sec
Final integration                            ... done (   1.1 sec)
Change in XC energy                          ...     0.000346774
Integrated number of electrons               ...    56.000012631
Previous integrated no of electrons          ...    55.998839969
Total Energy       :         -291.30485618 Eh           -7926.80813 eV
  Last Energy change         ...   -5.9413e-10  Tolerance :   1.0000e-08
  Last MAX-Density change    ...    7.3471e-06  Tolerance :   1.0000e-07
             **** THE GBW FILE WAS UPDATED (1759_+.gbw) ****
             **** DENSITY FILE WAS UPDATED (1759_+.scfp.tmp) ****
             **** ENERGY FILE WAS UPDATED (1759_+.en.tmp) ****
Total SCF time: 0 days 0 hours 2 min 9 sec 
           ************************************************************
           *              Shut down parallel processing               *
           ************************************************************

-------------------------   --------------------
FINAL SINGLE POINT ENERGY      -291.304856182021
-------------------------   --------------------



           ************************************************************
           *        Program running with 8 parallel MPI-processes     *
           *              working on a common directory               *
           ************************************************************
------------------------------------------------------------------------------
                         ORCA SCF GRADIENT CALCULATION
------------------------------------------------------------------------------

Gradient of the Kohn-Sham DFT energy:
Kohn-Sham wavefunction type      ... RKS
Hartree-Fock exchange scaling    ...    0.250
Number of operators              ...    1
Number of atoms                  ...   21
Basis set dimensions             ...  301
Integral neglect threshold       ... 2.5e-11
Integral primitive cutoff        ... 2.5e-12

Nuclear repulsion gradient       ... done
One Electron Gradient            ... done
Pre-screening matrix             ... done
Starting the two electron gradient:
Two electron gradient done
Exchange-correlation gradient    ... done

------------------
CARTESIAN GRADIENT
------------------

   1   C   :    0.000047135   -0.000057524   -0.000066934
   2   C   :   -0.000087713    0.000100787    0.000057421
   3   C   :    0.000052372   -0.000113845   -0.000228901
   4   C   :   -0.000032114    0.000081299    0.000345500
   5   N   :    0.000155300    0.000027995   -0.000221516
   6   C   :    0.000079824    0.000002232    0.000184508
   7   C   :    0.000099570   -0.000047882    0.000035009
   8   H   :   -0.000074237   -0.000030682   -0.000073405
   9   H   :   -0.000027799    0.000075607    0.000108762
  10   H   :    0.000089708    0.000001098   -0.000001938
  11   H   :   -0.000151146   -0.000033406   -0.000000865
  12   H   :    0.000076306    0.000047919   -0.000040750
  13   H   :    0.000018563   -0.000023339    0.000029528
  14   H   :    0.000017546   -0.000048222   -0.000069240
  15   H   :   -0.000023487   -0.000023345   -0.000015726
  16   H   :    0.000015525   -0.000078544    0.000057956
  17   H   :   -0.000114699    0.000007947    0.000086429
  18   H   :   -0.000118366    0.000031687   -0.000045185
  19   H   :    0.000005374    0.000011067   -0.000103663
  20   H   :   -0.000016777   -0.000022230   -0.000063521
  21   H   :   -0.000010885    0.000091381    0.000026531

Norm of the cartesian gradient     ...    0.000713424
RMS gradient                       ...    0.000089883
MAX gradient                       ...    0.000345500

-------
TIMINGS
-------

Total SCF gradient time            ...       38.711 sec

One electron gradient       ....       0.165 sec  (  0.4%)
Prescreening matrices       ....       0.500 sec  (  1.3%)
Two electron gradient       ....      33.043 sec  ( 85.4%)
XC gradient                 ....       4.417 sec  ( 11.4%)
           ************************************************************
           *              Shut down parallel processing               *
           ************************************************************
------------------------------------------------------------------------------
                         ORCA GEOMETRY RELAXATION STEP
------------------------------------------------------------------------------

Reading the OPT-File                    .... done
Getting information on internals        .... done
Copying old internal coords+grads       .... done
Making the new internal coordinates     .... (new redundants).... done
Validating the new internal coordinates .... (new redundants).... done
Calculating the B-matrix                .... done
Calculating the G,G- and P matrices     .... done
Transforming gradient to internals      .... done
Projecting the internal gradient        .... done
Number of atoms                         ....  21
Number of internal coordinates          .... 123
Current Energy                          ....  -291.304856182 Eh
Current gradient norm                   ....     0.000713424 Eh/bohr
Maximum allowed component of the step   ....  0.300
Current trust radius                    ....  0.300
Evaluating the initial hessian          ....  (Almloef) done
Projecting the Hessian                  .... done
Forming the augmented Hessian           .... done
Diagonalizing the augmented Hessian     .... done
Last element of RFO vector              ....  0.999969146
Lowest eigenvalues of augmented Hessian:
 -0.000001890  0.012025046  0.012461264  0.012571035  0.013035808
Length of the computed step             ....  0.007855657
The final length of the internal step   ....  0.007855657
Converting the step to cartesian space:
 Initial RMS(Int)=    0.0007083207
Transforming coordinates:
 Iter   0:  RMS(Cart)=    0.0016288240 RMS(Int)=    0.0007083419
 Iter   1:  RMS(Cart)=    0.0000014978 RMS(Int)=    0.0000009392
 Iter   2:  RMS(Cart)=    0.0000000029 RMS(Int)=    0.0000000016
done
Storing new coordinates                 .... done

                                .--------------------.
          ----------------------|Geometry convergence|---------------------
          Item                value                 Tolerance   Converged
          -----------------------------------------------------------------
          RMS gradient        0.00004999            0.00003000      NO
          MAX gradient        0.00019190            0.00010000      NO
          RMS step            0.00070832            0.00060000      NO
          MAX step            0.00265122            0.00100000      NO
          ....................................................
          Max(Bonds)      0.0003      Max(Angles)    0.03
          Max(Dihed)        0.15      Max(Improp)    0.00
          -----------------------------------------------------------------

The optimization has not yet converged - more geometry cycles are needed


    ---------------------------------------------------------------------------
                         Redundant Internal Coordinates
                            (Angstroem and degrees)

        Definition                    Value    dE/dq     Step     New-Value
    ----------------------------------------------------------------------------
     1. B(C   1,C   0)                1.5077  0.000045 -0.0001    1.5076   
     2. B(C   2,C   1)                1.5128 -0.000103  0.0001    1.5129   
     3. B(C   3,C   2)                1.5140  0.000192 -0.0003    1.5138   
     4. B(N   4,C   3)                1.5088 -0.000113  0.0002    1.5089   
     5. B(C   5,C   1)                1.4989  0.000005 -0.0000    1.4989   
     6. B(C   6,C   5)                1.4978  0.000006  0.0000    1.4978   
     7. B(C   6,C   1)                1.5041 -0.000062  0.0001    1.5042   
     8. B(H   7,C   0)                1.0908  0.000071 -0.0001    1.0907   
     9. B(H   8,C   0)                1.0946 -0.000011  0.0000    1.0946   
    10. B(H   9,C   0)                1.0943  0.000047 -0.0001    1.0942   
    11. B(H  10,C   2)                1.0965  0.000144 -0.0002    1.0962   
    12. B(H  11,C   2)                1.0983  0.000069 -0.0001    1.0982   
    13. B(H  12,C   3)                1.0899  0.000020 -0.0000    1.0899   
    14. B(H  13,C   3)                1.0907  0.000043 -0.0001    1.0906   
    15. B(H  14,N   4)                1.0224 -0.000036  0.0000    1.0224   
    16. B(H  15,N   4)                1.0220  0.000097 -0.0001    1.0219   
    17. B(H  16,N   4)                1.0225  0.000127 -0.0002    1.0223   
    18. B(H  17,C   5)                1.0836  0.000094 -0.0001    1.0835   
    19. B(H  18,C   5)                1.0828  0.000099 -0.0001    1.0826   
    20. B(H  19,C   6)                1.0828  0.000052 -0.0001    1.0827   
    21. B(H  20,C   6)                1.0846 -0.000006  0.0000    1.0846   
    22. A(C   1,C   0,H   9)          111.32  0.000130   -0.02    111.29   
    23. A(H   8,C   0,H   9)          108.16 -0.000048    0.02    108.18   
    24. A(C   1,C   0,H   7)          110.35 -0.000099    0.01    110.36   
    25. A(H   7,C   0,H   9)          107.41  0.000009   -0.01    107.40   
    26. A(C   1,C   0,H   8)          112.66 -0.000097    0.02    112.68   
    27. A(H   7,C   0,H   8)          106.70  0.000107   -0.02    106.68   
    28. A(C   2,C   1,C   6)          117.01 -0.000043    0.03    117.03   
    29. A(C   2,C   1,C   5)          116.38 -0.000029   -0.01    116.37   
    30. A(C   0,C   1,C   6)          118.64 -0.000025    0.02    118.66   
    31. A(C   0,C   1,C   5)          117.95 -0.000007   -0.01    117.94   
    32. A(C   0,C   1,C   2)          115.61  0.000059   -0.01    115.60   
    33. A(C   5,C   1,C   6)           59.84  0.000014   -0.00     59.84   
    34. A(H  10,C   2,H  11)          107.36  0.000047   -0.01    107.34   
    35. A(C   3,C   2,H  11)          109.77 -0.000018   -0.00    109.77   
    36. A(C   3,C   2,H  10)          109.34 -0.000029    0.01    109.35   
    37. A(C   1,C   2,H  10)          109.07 -0.000056    0.02    109.09   
    38. A(C   1,C   2,H  11)          109.57 -0.000050    0.01    109.58   
    39. A(C   1,C   2,C   3)          111.62  0.000104   -0.01    111.61   
    40. A(H  12,C   3,H  13)          108.77  0.000005    0.01    108.79   
    41. A(N   4,C   3,H  13)          106.67 -0.000003   -0.01    106.66   
    42. A(C   2,C   3,H  13)          111.85 -0.000062    0.01    111.86   
    43. A(C   2,C   3,N   4)          110.54  0.000136   -0.03    110.51   
    44. A(N   4,C   3,H  12)          106.14 -0.000064    0.01    106.14   
    45. A(C   2,C   3,H  12)          112.54 -0.000012    0.00    112.55   
    46. A(C   3,N   4,H  16)          110.87  0.000088   -0.02    110.85   
    47. A(H  14,N   4,H  15)          107.90  0.000018   -0.00    107.90   
    48. A(C   3,N   4,H  15)          112.05 -0.000031    0.01    112.06   
    49. A(C   3,N   4,H  14)          110.72 -0.000011    0.00    110.72   
    50. A(H  15,N   4,H  16)          107.87 -0.000041    0.01    107.88   
    51. A(H  14,N   4,H  16)          107.25 -0.000026    0.00    107.25   
    52. A(C   1,C   5,C   6)           60.25 -0.000028    0.00     60.26   
    53. A(H  17,C   5,H  18)          114.17 -0.000028    0.01    114.17   
    54. A(C   6,C   5,H  18)          118.11  0.000006    0.01    118.11   
    55. A(C   1,C   5,H  18)          117.31  0.000024   -0.01    117.30   
    56. A(C   6,C   5,H  17)          118.01  0.000004    0.01    118.02   
    57. A(C   1,C   5,H  17)          118.72  0.000030   -0.02    118.70   
    58. A(H  19,C   6,H  20)          114.11  0.000035   -0.01    114.10   
    59. A(C   5,C   6,H  20)          117.50 -0.000044    0.02    117.52   
    60. A(C   1,C   6,H  20)          118.90 -0.000033    0.01    118.91   
    61. A(C   1,C   6,C   5)           59.91  0.000014   -0.00     59.91   
    62. A(C   5,C   6,H  19)          118.28 -0.000001    0.01    118.29   
    63. A(C   1,C   6,H  19)          117.76  0.000012   -0.02    117.74   
    64. D(C   6,C   1,C   0,H   7)     36.64 -0.000021    0.09     36.73   
    65. D(C   2,C   1,C   0,H   8)     64.18 -0.000056    0.15     64.33   
    66. D(C   6,C   1,C   0,H   8)    -82.50 -0.000026    0.10    -82.41   
    67. D(C   5,C   1,C   0,H   8)   -151.51 -0.000031    0.10   -151.41   
    68. D(C   5,C   1,C   0,H   7)    -32.36 -0.000026    0.09    -32.27   
    69. D(C   5,C   1,C   0,H   9)     86.80  0.000005    0.07     86.87   
    70. D(C   6,C   1,C   0,H   9)    155.80  0.000010    0.08    155.87   
    71. D(C   2,C   1,C   0,H   7)   -176.68 -0.000051    0.15   -176.53   
    72. D(C   2,C   1,C   0,H   9)    -57.52 -0.000021    0.13    -57.39   
    73. D(H  10,C   2,C   1,C   6)    -39.39  0.000005   -0.03    -39.42   
    74. D(C   3,C   2,C   1,C   6)     81.54 -0.000003   -0.02     81.52   
    75. D(H  10,C   2,C   1,C   5)     28.48 -0.000003   -0.03     28.45   
    76. D(C   3,C   2,C   1,C   0)    -65.70  0.000022   -0.07    -65.77   
    77. D(H  11,C   2,C   1,C   6)   -156.65  0.000010   -0.03   -156.68   
    78. D(H  11,C   2,C   1,C   5)    -88.78  0.000002   -0.02    -88.80   
    79. D(H  11,C   2,C   1,C   0)     56.11  0.000034   -0.08     56.03   
    80. D(C   3,C   2,C   1,C   5)    149.41 -0.000011   -0.02    149.39   
    81. D(H  10,C   2,C   1,C   0)    173.37  0.000029   -0.08    173.28   
    82. D(H  13,C   3,C   2,H  10)     60.89  0.000028   -0.07     60.82   
    83. D(H  13,C   3,C   2,C   1)    -59.89  0.000052   -0.09    -59.98   
    84. D(H  12,C   3,C   2,H  11)    -58.77  0.000008   -0.06    -58.83   
    85. D(H  12,C   3,C   2,H  10)   -176.30 -0.000021   -0.04   -176.34   
    86. D(H  12,C   3,C   2,C   1)     62.92  0.000002   -0.06     62.87   
    87. D(N   4,C   3,C   2,H  11)     59.71  0.000011   -0.06     59.65   
    88. D(H  13,C   3,C   2,H  11)    178.41  0.000057   -0.09    178.33   
    89. D(N   4,C   3,C   2,H  10)    -57.82 -0.000018   -0.05    -57.86   
    90. D(N   4,C   3,C   2,C   1)   -178.59  0.000006   -0.06   -178.66   
    91. D(H  15,N   4,C   3,C   2)   -179.69 -0.000005   -0.02   -179.71   
    92. D(H  14,N   4,C   3,H  13)    179.01 -0.000012   -0.01    179.00   
    93. D(H  14,N   4,C   3,C   2)    -59.18 -0.000010   -0.02    -59.20   
    94. D(H  14,N   4,C   3,H  12)     63.14  0.000014   -0.03     63.11   
    95. D(H  16,N   4,C   3,H  13)    -62.08  0.000005   -0.02    -62.10   
    96. D(H  16,N   4,C   3,H  12)   -177.95  0.000031   -0.04   -177.98   
    97. D(H  16,N   4,C   3,C   2)     59.73  0.000007   -0.03     59.70   
    98. D(H  15,N   4,C   3,H  13)     58.50 -0.000007   -0.01     58.48   
    99. D(H  15,N   4,C   3,H  12)    -57.37  0.000019   -0.03    -57.40   
   100. D(H  18,C   5,C   1,C   6)   -108.40  0.000012   -0.01   -108.41   
   101. D(H  18,C   5,C   1,C   0)      0.22 -0.000010    0.01      0.23   
   102. D(H  17,C   5,C   1,C   6)    107.68 -0.000019    0.03    107.70   
   103. D(H  17,C   5,C   1,C   2)      0.34  0.000016   -0.01      0.33   
   104. D(H  17,C   5,C   1,C   0)   -143.71 -0.000041    0.05   -143.66   
   105. D(H  18,C   5,C   1,C   2)    144.26  0.000046   -0.05    144.21   
   106. D(C   6,C   5,C   1,C   2)   -107.34  0.000034   -0.03   -107.37   
   107. D(C   6,C   5,C   1,C   0)    108.61 -0.000022    0.02    108.64   
   108. D(H  20,C   6,C   5,H  18)   -143.76 -0.000000   -0.01   -143.77   
   109. D(H  20,C   6,C   5,C   1)    109.15 -0.000015    0.00    109.15   
   110. D(H  19,C   6,C   5,H  18)     -0.34 -0.000005    0.01     -0.33   
   111. D(H  19,C   6,C   5,H  17)    143.74 -0.000045    0.05    143.79   
   112. D(C   1,C   6,C   5,H  18)    107.08  0.000015   -0.01    107.07   
   113. D(C   1,C   6,C   5,H  17)   -108.84 -0.000024    0.03   -108.81   
   114. D(H  20,C   6,C   1,C   5)   -106.84  0.000034   -0.02   -106.86   
   115. D(H  20,C   6,C   1,C   2)     -0.54  0.000024   -0.04     -0.58   
   116. D(H  20,C   6,C   1,C   0)    145.68  0.000027    0.00    145.68   
   117. D(H  19,C   6,C   5,C   1)   -107.43 -0.000021    0.02   -107.40   
   118. D(H  19,C   6,C   1,C   5)    108.29 -0.000002    0.01    108.30   
   119. D(H  19,C   6,C   1,C   2)   -145.41 -0.000012   -0.01   -145.42   
   120. D(H  19,C   6,C   1,C   0)      0.81 -0.000009    0.03      0.85   
   121. D(H  20,C   6,C   5,H  17)      0.31 -0.000040    0.03      0.35   
   122. D(C   5,C   6,C   1,C   2)    106.30 -0.000010   -0.02    106.27   
   123. D(C   5,C   6,C   1,C   0)   -107.48 -0.000007    0.02   -107.46   
    ----------------------------------------------------------------------------

         *************************************************************
         *                GEOMETRY OPTIMIZATION CYCLE   2            *
         *************************************************************
---------------------------------
CARTESIAN COORDINATES (ANGSTROEM)
---------------------------------
  C      1.524557    0.000494   -1.296157
  C      0.074487    0.122224   -0.902011
  C     -0.180967    0.571195    0.519987
  C      0.296504   -0.456697    1.523452
  N      0.000420    0.000699    2.930565
  C     -0.896568    0.604348   -1.937041
  C     -0.919948   -0.830303   -1.507257
  H      1.610176   -0.267596   -2.349970
  H      2.051931   -0.774524   -0.730979
  H      2.055461    0.946787   -1.155050
  H     -1.255801    0.738949    0.655378
  H      0.325123    1.529049    0.700104
  H      1.373580   -0.616985    1.477201
  H     -0.207168   -1.415346    1.393839
  H      0.460156    0.892949    3.125167
  H      0.317848   -0.674912    3.628469
  H     -1.003344    0.141472    3.063838
  H     -1.714887    1.242488   -1.625476
  H     -0.501974    0.836646   -2.918050
  H     -0.546940   -1.578251   -2.195554
  H     -1.761677   -1.160308   -0.908073

----------------------------
CARTESIAN COORDINATES (A.U.)
----------------------------
  NO LB      ZA    FRAG    MASS        X           Y           Z
   0 C     6.0000    0    12.011          2.880995646378822          0.000933787631678         -2.449381926079221
   1 C     6.0000    0    12.011          0.140759939875085          0.230970367931751         -1.704554644997687
   2 C     6.0000    0    12.011         -0.341977186478073          1.079401389414449          0.982633693989034
   3 C     6.0000    0    12.011          0.560311302673721         -0.863033039314509          2.878906934971632
   4 N     7.0000    0    14.007          0.000794545634410          0.001319988570963          5.537965932226199
   5 C     6.0000    0    12.011         -1.694267133967020          1.142052071865362         -3.660476819745696
   6 C     6.0000    0    12.011         -1.738449364805423         -1.569046214324267         -2.848302140751768
   7 H     1.0000    0     1.008          3.042792087627327         -0.505683689826313         -4.440799242506972
   8 H     1.0000    0     1.008          3.877587681788472         -1.463637319560419         -1.381350238173709
   9 H     1.0000    0     1.008          3.884257942794732          1.789168210469675         -2.182728020746830
  10 H     1.0000    0     1.008         -2.373120056575798          1.396411606232214          1.238484413960160
  11 H     1.0000    0     1.008          0.614393118761554          2.889483753838401          1.323005437987111
  12 H     1.0000    0     1.008          2.595690115129364         -1.165933526007469          2.791505985806649
  13 H     1.0000    0     1.008         -0.391490043029057         -2.674616610593555          2.633973411781082
  14 H     1.0000    0     1.008          0.869568412334149          1.687429206292047          5.905710059441518
  15 H     1.0000    0     1.008          0.600646497927087         -1.275398394405304          6.856812739221768
  16 H     1.0000    0     1.008         -1.896044529986147          0.267343570334206          5.789815297587673
  17 H     1.0000    0     1.008         -3.240666848929330          2.347961200844004         -3.071704887719895
  18 H     1.0000    0     1.008         -0.948594300954945          1.581032334077944         -5.514315881864246
  19 H     1.0000    0     1.008         -1.033567163597694         -2.982463069190822         -4.148995811256697
  20 H     1.0000    0     1.008         -3.329086393341175         -2.192664010734566         -1.716008340152007

--------------------------------
INTERNAL COORDINATES (ANGSTROEM)
--------------------------------
 C      0   0   0   0.000000     0.000     0.000
 C      1   0   0   1.507605     0.000     0.000
 C      2   1   0   1.512915   115.601     0.000
 C      3   2   1   1.513764   111.610   294.226
 N      4   3   2   1.508922   110.514   181.343
 C      2   1   3   1.498892   117.941   144.259
 C      6   2   1   1.497827    60.257   108.639
 H      1   2   3   1.090745   110.361   183.466
 H      1   2   3   1.094624   112.680    64.331
 H      1   2   3   1.094185   111.293   302.611
 H      3   2   1   1.096240   109.090   173.283
 H      3   2   1   1.098205   109.583    56.029
 H      4   3   2   1.089919   112.547    62.866
 H      4   3   2   1.090638   111.864   300.023
 H      5   4   3   1.022417   110.720   300.801
 H      5   4   3   1.021900   112.056   180.287
 H      5   4   3   1.022312   110.853    59.704
 H      6   2   1   1.083486   118.697   216.343
 H      6   2   1   1.082611   117.298     0.227
 H      7   6   2   1.082735   118.286   252.597
 H      7   6   2   1.084634   117.519   109.155

---------------------------
INTERNAL COORDINATES (A.U.)
---------------------------
 C      0   0   0   0.000000     0.000     0.000
 C      1   0   0   2.848961     0.000     0.000
 C      2   1   0   2.858995   115.601     0.000
 C      3   2   1   2.860599   111.610   294.226
 N      4   3   2   2.851449   110.514   181.343
 C      2   1   3   2.832495   117.941   144.259
 C      6   2   1   2.830483    60.257   108.639
 H      1   2   3   2.061209   110.361   183.466
 H      1   2   3   2.068540   112.680    64.331
 H      1   2   3   2.067709   111.293   302.611
 H      3   2   1   2.071593   109.090   173.283
 H      3   2   1   2.075306   109.583    56.029
 H      4   3   2   2.059649   112.547    62.866
 H      4   3   2   2.061008   111.864   300.023
 H      5   4   3   1.932089   110.720   300.801
 H      5   4   3   1.931111   112.056   180.287
 H      5   4   3   1.931889   110.853    59.704
 H      6   2   1   2.047491   118.697   216.343
 H      6   2   1   2.045837   117.298     0.227
 H      7   6   2   2.046072   118.286   252.597
 H      7   6   2   2.049662   117.519   109.155



           ************************************************************
           *        Program running with 8 parallel MPI-processes     *
           *              working on a common directory               *
           ************************************************************
           ************************************************************
           *              Shut down parallel processing               *
           ************************************************************


           ************************************************************
           *        Program running with 8 parallel MPI-processes     *
           *              working on a common directory               *
           ************************************************************

Diagonalization of the overlap matrix:
Smallest eigenvalue                        ... 9.688e-05
Time for diagonalization                   ...    0.074 sec
Threshold for overlap eigenvalues          ... 1.000e-08
Number of eigenvalues below threshold      ... 0
Time for construction of square roots      ...    0.015 sec
Total time needed                          ...    0.089 sec

-------------------
DFT GRID GENERATION
-------------------

General Integration Accuracy     IntAcc      ...  4.340
Radial Grid Type                 RadialGrid  ... Gauss-Chebyshev
Angular Grid (max. acc.)         AngularGrid ... Lebedev-194
Angular grid pruning method      GridPruning ... 3 (G Style)
Weight generation scheme         WeightScheme... Becke
Basis function cutoff            BFCut       ...    1.0000e-11
Integration weight cutoff        WCut        ...    1.0000e-14
Grids for H and He will be reduced by one unit

# of grid points (after initial pruning)     ...  44398 (   0.0 sec)
# of grid points (after weights+screening)   ...  40164 (   0.2 sec)
nearest neighbour list constructed           ...    0.0 sec
Grid point re-assignment to atoms done       ...    0.0 sec
Grid point division into batches done        ...    0.1 sec
Reduced shell lists constructed in    0.1 sec

Total number of grid points                  ...    40164
Total number of batches                      ...      639
Average number of points per batch           ...       62
Average number of grid points per atom       ...     1913
Average number of shells per batch           ...   109.95 (82.67%)
Average number of basis functions per batch  ...   260.10 (86.41%)
Average number of large shells per batch     ...    90.69 (82.48%)
Average number of large basis fcns per batch ...   215.90 (83.01%)
Maximum spatial batch extension              ...   2.93,  2.94,  2.25 au
Average spatial batch extension              ...   0.15,  0.16,  0.15 au

Time for grid setup =    0.392 sec

--------------
SCF ITERATIONS
--------------
ITER       Energy         Delta-E        Max-DP      RMS-DP      [F,P]     Damp
               ***  Starting incremental Fock matrix formation  ***
                      *** Initiating the SOSCF procedure ***
                      *** Re-Reading the Fockian *** 
                      *** Removing any level shift *** 
ITER      Energy       Delta-E        Grad      Rot      Max-DP    RMS-DP
  0   -291.30520051 -291.3052005076  0.000153  0.000153  0.000251  0.000007
               *** Restarting incremental Fock matrix formation ***
  1   -291.30520285  -0.0000023387  0.000041  0.000055  0.000100  0.000003
  2   -291.30520307  -0.0000002193  0.000008  0.000016  0.000025  0.000001
  3   -291.30520307  -0.0000000013  0.000011  0.000009  0.000012  0.000000
                  ***Gradient check signals convergence***
              ***Rediagonalizing the Fockian in SOSCF/NRSCF***

               *****************************************************
               *                     SUCCESS                       *
               *           SCF CONVERGED AFTER   4 CYCLES          *
               *****************************************************

Setting up the final grid:

General Integration Accuracy     IntAcc      ...  5.010
Radial Grid Type                 RadialGrid  ... Gauss-Chebyshev
Angular Grid (max. acc.)         AngularGrid ... Lebedev-434
Angular grid pruning method      GridPruning ... 3 (G Style)
Weight generation scheme         WeightScheme... Becke
Basis function cutoff            BFCut       ...    1.0000e-11
Integration weight cutoff        WCut        ...    1.0000e-14
Grids for H and He will be reduced by one unit

# of grid points (after initial pruning)     ... 168466 (   0.0 sec)
# of grid points (after weights+screening)   ... 150434 (   0.3 sec)
nearest neighbour list constructed           ...    0.0 sec
Grid point re-assignment to atoms done       ...    0.0 sec
Grid point division into batches done        ...    1.0 sec
Reduced shell lists constructed in    1.4 sec

Total number of grid points                  ...   150434
Total number of batches                      ...     2360
Average number of points per batch           ...       63
Average number of grid points per atom       ...     7164
Average number of shells per batch           ...   108.23 (81.38%)
Average number of basis functions per batch  ...   256.59 (85.25%)
Average number of large shells per batch     ...    88.08 (81.38%)
Average number of large basis fcns per batch ...   208.82 (81.38%)
Maximum spatial batch extension              ...   2.34,  3.22,  2.57 au
Average spatial batch extension              ...   0.10,  0.10,  0.10 au

Final grid set up in    1.9 sec
Final integration                            ... done (   1.2 sec)
Change in XC energy                          ...     0.000345465
Integrated number of electrons               ...    56.000014983
Previous integrated no of electrons          ...    55.998829144
Total Energy       :         -291.30485761 Eh           -7926.80817 eV
  Last Energy change         ...   -6.1029e-09  Tolerance :   1.0000e-08
  Last MAX-Density change    ...    2.3220e-06  Tolerance :   1.0000e-07
             **** THE GBW FILE WAS UPDATED (1759_+.gbw) ****
             **** DENSITY FILE WAS UPDATED (1759_+.scfp.tmp) ****
             **** ENERGY FILE WAS UPDATED (1759_+.en.tmp) ****
Total SCF time: 0 days 0 hours 0 min 39 sec 
           ************************************************************
           *              Shut down parallel processing               *
           ************************************************************

-------------------------   --------------------
FINAL SINGLE POINT ENERGY      -291.304857608447
-------------------------   --------------------



           ************************************************************
           *        Program running with 8 parallel MPI-processes     *
           *              working on a common directory               *
           ************************************************************
------------------------------------------------------------------------------
                         ORCA SCF GRADIENT CALCULATION
------------------------------------------------------------------------------

Gradient of the Kohn-Sham DFT energy:
Kohn-Sham wavefunction type      ... RKS
Hartree-Fock exchange scaling    ...    0.250
Number of operators              ...    1
Number of atoms                  ...   21
Basis set dimensions             ...  301
Integral neglect threshold       ... 2.5e-11
Integral primitive cutoff        ... 2.5e-12

Nuclear repulsion gradient       ... done
One Electron Gradient            ... done
Pre-screening matrix             ... done
Starting the two electron gradient:
Two electron gradient done
Exchange-correlation gradient    ... done

------------------
CARTESIAN GRADIENT
------------------

   1   C   :    0.000029989    0.000001007   -0.000097895
   2   C   :   -0.000051816    0.000015565    0.000029064
   3   C   :   -0.000010421   -0.000020047   -0.000065856
   4   C   :   -0.000020270    0.000042928    0.000178187
   5   N   :    0.000008875   -0.000011046   -0.000122125
   6   C   :    0.000036663    0.000062469    0.000113093
   7   C   :    0.000073949   -0.000107777   -0.000045961
   8   H   :   -0.000049854   -0.000015558    0.000003515
   9   H   :   -0.000017195    0.000045752    0.000068422
  10   H   :    0.000039833   -0.000021769   -0.000011976
  11   H   :   -0.000008904   -0.000027961    0.000001349
  12   H   :    0.000023178   -0.000005887   -0.000013304
  13   H   :    0.000002714   -0.000011059    0.000016958
  14   H   :    0.000019351   -0.000011705   -0.000054738
  15   H   :   -0.000006667    0.000010141    0.000000896
  16   H   :   -0.000007204   -0.000007009   -0.000009790
  17   H   :    0.000009206   -0.000004798    0.000051784
  18   H   :   -0.000021325   -0.000000032   -0.000047031
  19   H   :   -0.000011407   -0.000000151   -0.000006844
  20   H   :   -0.000029403    0.000001796   -0.000014100
  21   H   :   -0.000009294    0.000065141    0.000026351

Norm of the cartesian gradient     ...    0.000367527
RMS gradient                       ...    0.000046304
MAX gradient                       ...    0.000178187

-------
TIMINGS
-------

Total SCF gradient time            ...       63.871 sec

One electron gradient       ....       0.270 sec  (  0.4%)
Prescreening matrices       ....       1.120 sec  (  1.8%)
Two electron gradient       ....      53.569 sec  ( 83.9%)
XC gradient                 ....       7.323 sec  ( 11.5%)
           ************************************************************
           *              Shut down parallel processing               *
           ************************************************************
------------------------------------------------------------------------------
                         ORCA GEOMETRY RELAXATION STEP
------------------------------------------------------------------------------

Reading the OPT-File                    .... done
Getting information on internals        .... done
Copying old internal coords+grads       .... done
Making the new internal coordinates     .... (new redundants).... done
Validating the new internal coordinates .... (new redundants).... done
Calculating the B-matrix                .... done
Calculating the G,G- and P matrices     .... done
Transforming gradient to internals      .... done
Projecting the internal gradient        .... done
Number of atoms                         ....  21
Number of internal coordinates          .... 123
Current Energy                          ....  -291.304857608 Eh
Current gradient norm                   ....     0.000367527 Eh/bohr
Maximum allowed component of the step   ....  0.300
Current trust radius                    ....  0.300
Updating the Hessian (BFGS)             .... done
Forming the augmented Hessian           .... done
Diagonalizing the augmented Hessian     .... done
Last element of RFO vector              ....  0.999892302
Lowest eigenvalues of augmented Hessian:
 -0.000001753  0.006725845  0.012049742  0.012590698  0.012701094
Length of the computed step             ....  0.014677527
The final length of the internal step   ....  0.014677527
Converting the step to cartesian space:
 Initial RMS(Int)=    0.0013234281
Transforming coordinates:
 Iter   0:  RMS(Cart)=    0.0030095540 RMS(Int)=    0.0013235160
 Iter   1:  RMS(Cart)=    0.0000051077 RMS(Int)=    0.0000031568
 Iter   2:  RMS(Cart)=    0.0000000176 RMS(Int)=    0.0000000099
done
Storing new coordinates                 .... done

                                .--------------------.
          ----------------------|Geometry convergence|---------------------
          Item                value                 Tolerance   Converged
          -----------------------------------------------------------------
          Energy change      -0.00000143            0.00000100      NO
          RMS gradient        0.00002322            0.00003000      YES
          MAX gradient        0.00008038            0.00010000      YES
          RMS step            0.00132343            0.00060000      NO
          MAX step            0.00445763            0.00100000      NO
          ....................................................
          Max(Bonds)      0.0003      Max(Angles)    0.04
          Max(Dihed)        0.26      Max(Improp)    0.00
          -----------------------------------------------------------------

The optimization has not yet converged - more geometry cycles are needed


    ---------------------------------------------------------------------------
                         Redundant Internal Coordinates
                            (Angstroem and degrees)

        Definition                    Value    dE/dq     Step     New-Value
    ----------------------------------------------------------------------------
     1. B(C   1,C   0)                1.5076  0.000013 -0.0001    1.5075   
     2. B(C   2,C   1)                1.5129 -0.000031  0.0001    1.5131   
     3. B(C   3,C   2)                1.5138  0.000038 -0.0002    1.5136   
     4. B(N   4,C   3)                1.5089 -0.000079  0.0003    1.5092   
     5. B(C   5,C   1)                1.4989 -0.000025  0.0001    1.4990   
     6. B(C   6,C   5)                1.4978  0.000028 -0.0001    1.4978   
     7. B(C   6,C   1)                1.5042 -0.000013  0.0000    1.5042   
     8. B(H   7,C   0)                1.0907 -0.000005 -0.0000    1.0907   
     9. B(H   8,C   0)                1.0946 -0.000006  0.0000    1.0946   
    10. B(H   9,C   0)                1.0942  0.000001 -0.0000    1.0942   
    11. B(H  10,C   2)                1.0962  0.000005 -0.0001    1.0961   
    12. B(H  11,C   2)                1.0982  0.000003 -0.0000    1.0982   
    13. B(H  12,C   3)                1.0899  0.000003 -0.0000    1.0899   
    14. B(H  13,C   3)                1.0906  0.000008 -0.0000    1.0906   
    15. B(H  14,N   4)                1.0224  0.000004  0.0000    1.0224   
    16. B(H  15,N   4)                1.0219 -0.000004 -0.0000    1.0219   
    17. B(H  16,N   4)                1.0223 -0.000001 -0.0001    1.0223   
    18. B(H  17,C   5)                1.0835  0.000002 -0.0001    1.0834   
    19. B(H  18,C   5)                1.0826  0.000002 -0.0001    1.0826   
    20. B(H  19,C   6)                1.0827 -0.000001 -0.0000    1.0827   
    21. B(H  20,C   6)                1.0846  0.000000  0.0000    1.0846   
    22. A(C   1,C   0,H   9)          111.29  0.000080   -0.04    111.26   
    23. A(H   8,C   0,H   9)          108.18 -0.000027    0.03    108.20   
    24. A(C   1,C   0,H   7)          110.36 -0.000061    0.02    110.38   
    25. A(H   7,C   0,H   9)          107.40  0.000006   -0.01    107.39   
    26. A(C   1,C   0,H   8)          112.68 -0.000060    0.03    112.71   
    27. A(H   7,C   0,H   8)          106.68  0.000064   -0.03    106.64   
    28. A(C   2,C   1,C   6)          117.03 -0.000028    0.03    117.06   
    29. A(C   2,C   1,C   5)          116.37 -0.000029   -0.00    116.37   
    30. A(C   0,C   1,C   6)          118.66 -0.000025    0.02    118.68   
    31. A(C   0,C   1,C   5)          117.94 -0.000015   -0.00    117.94   
    32. A(C   0,C   1,C   2)          115.60  0.000052   -0.03    115.57   
    33. A(C   5,C   1,C   6)           59.84  0.000019   -0.01     59.83   
    34. A(H  10,C   2,H  11)          107.34  0.000022   -0.02    107.32   
    35. A(C   3,C   2,H  11)          109.77 -0.000017   -0.00    109.77   
    36. A(C   3,C   2,H  10)          109.35 -0.000018    0.02    109.36   
    37. A(C   1,C   2,H  10)          109.09 -0.000030    0.02    109.11   
    38. A(C   1,C   2,H  11)          109.58 -0.000008   -0.00    109.58   
    39. A(C   1,C   2,C   3)          111.61  0.000050   -0.02    111.59   
    40. A(H  12,C   3,H  13)          108.79 -0.000004    0.02    108.81   
    41. A(N   4,C   3,H  13)          106.66  0.000021   -0.02    106.64   
    42. A(C   2,C   3,H  13)          111.86 -0.000032    0.02    111.88   
    43. A(C   2,C   3,N   4)          110.51  0.000031   -0.03    110.49   
    44. A(N   4,C   3,H  12)          106.14 -0.000018    0.01    106.15   
    45. A(C   2,C   3,H  12)          112.55  0.000004    0.00    112.55   
    46. A(C   3,N   4,H  16)          110.85  0.000065   -0.03    110.82   
    47. A(H  14,N   4,H  15)          107.90  0.000010   -0.00    107.89   
    48. A(C   3,N   4,H  15)          112.06 -0.000027    0.02    112.07   
    49. A(C   3,N   4,H  14)          110.72  0.000002   -0.00    110.72   
    50. A(H  15,N   4,H  16)          107.88 -0.000028    0.02    107.90   
    51. A(H  14,N   4,H  16)          107.25 -0.000024    0.00    107.25   
    52. A(C   1,C   5,C   6)           60.26 -0.000006    0.00     60.26   
    53. A(H  17,C   5,H  18)          114.17 -0.000018    0.01    114.19   
    54. A(C   6,C   5,H  18)          118.11  0.000000    0.01    118.12   
    55. A(C   1,C   5,H  18)          117.30  0.000010   -0.01    117.29   
    56. A(C   6,C   5,H  17)          118.02  0.000007    0.01    118.03   
    57. A(C   1,C   5,H  17)          118.70  0.000015   -0.03    118.66   
    58. A(H  19,C   6,H  20)          114.10  0.000016   -0.02    114.08   
    59. A(C   5,C   6,H  20)          117.52 -0.000027    0.03    117.55   
    60. A(C   1,C   6,H  20)          118.91 -0.000021    0.02    118.93   
    61. A(C   1,C   6,C   5)           59.91 -0.000013    0.00     59.91   
    62. A(C   5,C   6,H  19)          118.29  0.000011    0.00    118.29   
    63. A(C   1,C   6,H  19)          117.74  0.000019   -0.03    117.71   
    64. D(C   6,C   1,C   0,H   7)     36.73 -0.000018    0.20     36.92   
    65. D(C   2,C   1,C   0,H   8)     64.33 -0.000030    0.26     64.59   
    66. D(C   6,C   1,C   0,H   8)    -82.41 -0.000019    0.20    -82.20   
    67. D(C   5,C   1,C   0,H   8)   -151.41 -0.000027    0.20   -151.21   
    68. D(C   5,C   1,C   0,H   7)    -32.27 -0.000026    0.20    -32.08   
    69. D(C   5,C   1,C   0,H   9)     86.87 -0.000007    0.17     87.04   
    70. D(C   6,C   1,C   0,H   9)    155.87  0.000001    0.17    156.04   
    71. D(C   2,C   1,C   0,H   7)   -176.53 -0.000029    0.25   -176.28   
    72. D(C   2,C   1,C   0,H   9)    -57.39 -0.000010    0.22    -57.17   
    73. D(H  10,C   2,C   1,C   6)    -39.42  0.000006   -0.06    -39.49   
    74. D(C   3,C   2,C   1,C   6)     81.52 -0.000004   -0.04     81.48   
    75. D(H  10,C   2,C   1,C   5)     28.45  0.000009   -0.06     28.39   
    76. D(C   3,C   2,C   1,C   0)    -65.77  0.000006   -0.09    -65.87   
    77. D(H  11,C   2,C   1,C   6)   -156.68  0.000002   -0.05   -156.73   
    78. D(H  11,C   2,C   1,C   5)    -88.80  0.000005   -0.05    -88.85   
    79. D(H  11,C   2,C   1,C   0)     56.03  0.000012   -0.10     55.92   
    80. D(C   3,C   2,C   1,C   5)    149.39 -0.000002   -0.04    149.36   
    81. D(H  10,C   2,C   1,C   0)    173.28  0.000017   -0.11    173.17   
    82. D(H  13,C   3,C   2,H  10)     60.82  0.000022   -0.15     60.66   
    83. D(H  13,C   3,C   2,C   1)    -59.98  0.000040   -0.18    -60.16   
    84. D(H  12,C   3,C   2,H  11)    -58.83  0.000002   -0.13    -58.96   
    85. D(H  12,C   3,C   2,H  10)   -176.34 -0.000004   -0.11   -176.46   
    86. D(H  12,C   3,C   2,C   1)     62.87  0.000013   -0.14     62.72   
    87. D(N   4,C   3,C   2,H  11)     59.65  0.000003   -0.14     59.51   
    88. D(H  13,C   3,C   2,H  11)    178.33  0.000029   -0.17    178.16   
    89. D(N   4,C   3,C   2,H  10)    -57.86 -0.000004   -0.12    -57.99   
    90. D(N   4,C   3,C   2,C   1)   -178.66  0.000014   -0.15   -178.81   
    91. D(H  15,N   4,C   3,C   2)   -179.71 -0.000004   -0.05   -179.76   
    92. D(H  14,N   4,C   3,H  13)    179.00 -0.000000   -0.04    178.96   
    93. D(H  14,N   4,C   3,C   2)    -59.20 -0.000008   -0.04    -59.24   
    94. D(H  14,N   4,C   3,H  12)     63.11  0.000003   -0.05     63.06   
    95. D(H  16,N   4,C   3,H  13)    -62.10  0.000013   -0.05    -62.15   
    96. D(H  16,N   4,C   3,H  12)   -177.98  0.000017   -0.07   -178.05   
    97. D(H  16,N   4,C   3,C   2)     59.70  0.000005   -0.06     59.65   
    98. D(H  15,N   4,C   3,H  13)     58.48  0.000004   -0.04     58.44   
    99. D(H  15,N   4,C   3,H  12)    -57.40  0.000008   -0.06    -57.46   
   100. D(H  18,C   5,C   1,C   6)   -108.41  0.000006   -0.01   -108.43   
   101. D(H  18,C   5,C   1,C   0)      0.23 -0.000011    0.01      0.24   
   102. D(H  17,C   5,C   1,C   6)    107.70  0.000000    0.03    107.73   
   103. D(H  17,C   5,C   1,C   2)      0.33  0.000015   -0.01      0.32   
   104. D(H  17,C   5,C   1,C   0)   -143.66 -0.000017    0.05   -143.60   
   105. D(H  18,C   5,C   1,C   2)    144.21  0.000020   -0.05    144.16   
   106. D(C   6,C   5,C   1,C   2)   -107.37  0.000014   -0.04   -107.41   
   107. D(C   6,C   5,C   1,C   0)    108.64 -0.000017    0.03    108.67   
   108. D(H  20,C   6,C   5,H  18)   -143.77 -0.000008   -0.00   -143.77   
   109. D(H  20,C   6,C   5,C   1)    109.15 -0.000019    0.01    109.17   
   110. D(H  19,C   6,C   5,H  18)     -0.33 -0.000003    0.02     -0.31   
   111. D(H  19,C   6,C   5,H  17)    143.79 -0.000026    0.08    143.87   
   112. D(C   1,C   6,C   5,H  18)    107.07  0.000010   -0.01    107.06   
   113. D(C   1,C   6,C   5,H  17)   -108.81 -0.000013    0.05   -108.76   
   114. D(H  20,C   6,C   1,C   5)   -106.86  0.000029   -0.03   -106.89   
   115. D(H  20,C   6,C   1,C   2)     -0.58  0.000014   -0.05     -0.63   
   116. D(H  20,C   6,C   1,C   0)    145.68  0.000029   -0.02    145.67   
   117. D(H  19,C   6,C   5,C   1)   -107.40 -0.000013    0.04   -107.37   
   118. D(H  19,C   6,C   1,C   5)    108.30 -0.000000    0.02    108.32   
   119. D(H  19,C   6,C   1,C   2)   -145.42 -0.000015    0.00   -145.42   
   120. D(H  19,C   6,C   1,C   0)      0.85 -0.000000    0.04      0.88   
   121. D(H  20,C   6,C   5,H  17)      0.35 -0.000031    0.06      0.41   
   122. D(C   5,C   6,C   1,C   2)    106.27 -0.000015   -0.02    106.26   
   123. D(C   5,C   6,C   1,C   0)   -107.46 -0.000000    0.02   -107.44   
    ----------------------------------------------------------------------------

         *************************************************************
         *                GEOMETRY OPTIMIZATION CYCLE   3            *
         *************************************************************
---------------------------------
CARTESIAN COORDINATES (ANGSTROEM)
---------------------------------
  C      1.524459    0.001376   -1.295437
  C      0.074140    0.121541   -0.901949
  C     -0.181693    0.570644    0.520086
  C      0.294946   -0.457681    1.523196
  N      0.001714    0.001781    2.930555
  C     -0.896818    0.603523   -1.937260
  C     -0.919607   -0.831230   -1.508008
  H      1.611329   -0.262544   -2.350173
  H      2.051929   -0.775817   -0.733295
  H      2.054536    0.947501   -1.150389
  H     -1.256279    0.739440    0.655360
  H      0.324987    1.528076    0.700496
  H      1.371586   -0.620303    1.475471
  H     -0.211262   -1.415191    1.395476
  H      0.464305    0.892836    3.123897
  H      0.317763   -0.674058    3.628811
  H     -1.001490    0.145721    3.064219
  H     -1.715096    1.241412   -1.625271
  H     -0.501819    0.836562   -2.917864
  H     -0.545394   -1.578712   -2.196117
  H     -1.761266   -1.162501   -0.909419

----------------------------
CARTESIAN COORDINATES (A.U.)
----------------------------
  NO LB      ZA    FRAG    MASS        X           Y           Z
   0 C     6.0000    0    12.011          2.880810514574890          0.002599519753246         -2.448020397842877
   1 C     6.0000    0    12.011          0.140104330684299          0.229678279673905         -1.704436622253685
   2 C     6.0000    0    12.011         -0.343349956579330          1.078361397539194          0.982819412904170
   3 C     6.0000    0    12.011          0.557366915248636         -0.864891604878757          2.878422846063007
   4 N     7.0000    0    14.007          0.003239825462849          0.003365157602349          5.537947213007518
   5 C     6.0000    0    12.011         -1.694739670513671          1.140494110784037         -3.660891634578639
   6 C     6.0000    0    12.011         -1.737805572056807         -1.570797270066286         -2.849721763075016
   7 H     1.0000    0     1.008          3.044970975948905         -0.496136138939085         -4.441183998018900
   8 H     1.0000    0     1.008          3.877584402175139         -1.466082007110333         -1.385727342686666
   9 H     1.0000    0     1.008          3.882509666997233          1.790518249999063         -2.173920301188507
  10 H     1.0000    0     1.008         -2.374022525585020          1.397338970793564          1.238450407519335
  11 H     1.0000    0     1.008          0.614135889643223          2.887645737807231          1.323746469707513
  12 H     1.0000    0     1.008          2.591922649348413         -1.172202048938384          2.788235523802202
  13 H     1.0000    0     1.008         -0.399228073085109         -2.674323473762235          2.637066810841453
  14 H     1.0000    0     1.008          0.877409099744607          1.687215112004008          5.903309257622354
  15 H     1.0000    0     1.008          0.600485853851475         -1.273784895395300          6.857459684816774
  16 H     1.0000    0     1.008         -1.892541778496402          0.275373522234390          5.790534366481971
  17 H     1.0000    0     1.008         -3.241062085488879          2.345927796687096         -3.071316754479855
  18 H     1.0000    0     1.008         -0.948301407576823          1.580872832789802         -5.513964633480668
  19 H     1.0000    0     1.008         -1.030644525234793         -2.983333859231025         -4.150059892450390
  20 H     1.0000    0     1.008         -3.328310259802773         -2.196807775801009         -1.718552699732997

--------------------------------
INTERNAL COORDINATES (ANGSTROEM)
--------------------------------
 C      0   0   0   0.000000     0.000     0.000
 C      1   0   0   1.507547     0.000     0.000
 C      2   1   0   1.513052   115.571     0.000
 C      3   2   1   1.513561   111.591   294.135
 N      4   3   2   1.509222   110.487   181.191
 C      2   1   3   1.498978   117.938   144.205
 C      6   2   1   1.497763    60.257   108.667
 H      1   2   3   1.090720   110.384   183.715
 H      1   2   3   1.094649   112.714    64.586
 H      1   2   3   1.094154   111.257   302.834
 H      3   2   1   1.096141   109.114   173.169
 H      3   2   1   1.098157   109.583    55.924
 H      4   3   2   1.089898   112.547    62.723
 H      4   3   2   1.090589   111.883   299.840
 H      5   4   3   1.022424   110.717   300.760
 H      5   4   3   1.021864   112.071   180.242
 H      5   4   3   1.022254   110.822    59.646
 H      6   2   1   1.083429   118.662   216.398
 H      6   2   1   1.082550   117.291     0.240
 H      7   6   2   1.082709   118.290   252.633
 H      7   6   2   1.084637   117.551   109.166

---------------------------
INTERNAL COORDINATES (A.U.)
---------------------------
 C      0   0   0   0.000000     0.000     0.000
 C      1   0   0   2.848851     0.000     0.000
 C      2   1   0   2.859254   115.571     0.000
 C      3   2   1   2.860216   111.591   294.135
 N      4   3   2   2.852016   110.487   181.191
 C      2   1   3   2.832659   117.938   144.205
 C      6   2   1   2.830363    60.257   108.667
 H      1   2   3   2.061162   110.384   183.715
 H      1   2   3   2.068587   112.714    64.586
 H      1   2   3   2.067652   111.257   302.834
 H      3   2   1   2.071407   109.114   173.169
 H      3   2   1   2.075216   109.583    55.924
 H      4   3   2   2.059609   112.547    62.723
 H      4   3   2   2.060915   111.883   299.840
 H      5   4   3   1.932100   110.717   300.760
 H      5   4   3   1.931043   112.071   180.242
 H      5   4   3   1.931781   110.822    59.646
 H      6   2   1   2.047384   118.662   216.398
 H      6   2   1   2.045723   117.291     0.240
 H      7   6   2   2.046024   118.290   252.633
 H      7   6   2   2.049668   117.551   109.166



           ************************************************************
           *        Program running with 8 parallel MPI-processes     *
           *              working on a common directory               *
           ************************************************************
           ************************************************************
           *              Shut down parallel processing               *
           ************************************************************


           ************************************************************
           *        Program running with 8 parallel MPI-processes     *
           *              working on a common directory               *
           ************************************************************

Diagonalization of the overlap matrix:
Smallest eigenvalue                        ... 9.689e-05
Time for diagonalization                   ...    0.171 sec
Threshold for overlap eigenvalues          ... 1.000e-08
Number of eigenvalues below threshold      ... 0
Time for construction of square roots      ...    0.019 sec
Total time needed                          ...    0.190 sec

-------------------
DFT GRID GENERATION
-------------------

General Integration Accuracy     IntAcc      ...  4.340
Radial Grid Type                 RadialGrid  ... Gauss-Chebyshev
Angular Grid (max. acc.)         AngularGrid ... Lebedev-194
Angular grid pruning method      GridPruning ... 3 (G Style)
Weight generation scheme         WeightScheme... Becke
Basis function cutoff            BFCut       ...    1.0000e-11
Integration weight cutoff        WCut        ...    1.0000e-14
Grids for H and He will be reduced by one unit

# of grid points (after initial pruning)     ...  44398 (   0.0 sec)
# of grid points (after weights+screening)   ...  40166 (   0.1 sec)
nearest neighbour list constructed           ...    0.0 sec
[...]
     39       0.007270  -0.027275  -0.000325   0.030932  -0.153732   0.327793
     40      -0.012245  -0.046983  -0.000466   0.057712  -0.274639   0.586268
     41      -0.031644  -0.007417   0.000140   0.011956  -0.037045   0.077814
     42      -0.584317   0.004351  -0.000105  -0.002681   0.003886  -0.007393
     43       0.297526   0.003675  -0.000557  -0.004615   0.005807  -0.010828
     44      -0.020412   0.006406  -0.000408  -0.004287   0.000021   0.001232
     45       0.134146  -0.000702   0.000203  -0.002142  -0.001065   0.002803
     46      -0.227011   0.002298  -0.000214  -0.000710   0.002118  -0.005172
     47      -0.239600   0.002482  -0.000371   0.000592   0.001819  -0.003693
     48       0.105885  -0.003460  -0.000343  -0.008151  -0.006466   0.011622
     49       0.652267  -0.001500   0.000194  -0.000092   0.000442  -0.000549
     50      -0.003444   0.003658   0.000402   0.005828  -0.000136   0.001051
     51      -0.000618   0.003125  -0.000165   0.010253   0.000678   0.003376
     52       0.000318  -0.003520   0.001793  -0.009033   0.000886  -0.002153
     53       0.000222  -0.003585   0.002098  -0.005245  -0.000717  -0.001918
     54       0.001401  -0.002023   0.002111  -0.001188  -0.002303  -0.001782
     55      -0.000495   0.000625   0.000300  -0.000016  -0.000551  -0.000191
     56       0.000759   0.000928  -0.002663   0.003561   0.000949   0.002322
     57      -0.000897  -0.002343   0.003047  -0.001436  -0.000419  -0.000503
     58      -0.001096   0.002597  -0.002922   0.001558   0.002867   0.002035
     59       0.000080   0.001319  -0.002987   0.003718   0.002696   0.002410
     60      -0.000136   0.006716  -0.002590   0.009651   0.001825   0.003894
     61      -0.000016   0.002306  -0.000935   0.003499   0.001726   0.002130
     62      -0.000631  -0.005138   0.004191  -0.009320  -0.001056  -0.002906
                 54         55         56         57         58         59    
      0      -0.014065   0.000573   0.000309   0.000903  -0.000102   0.000308
      1      -0.030570   0.001785   0.001579  -0.001482  -0.000148   0.000465
      2      -0.083880   0.006656   0.005246   0.002802  -0.000467   0.001550
      3      -0.001188  -0.001634  -0.002565   0.000173   0.000175  -0.000364
      4      -0.000671  -0.000675  -0.000415  -0.000047  -0.000036   0.000010
      5      -0.001574  -0.001342  -0.002370   0.000115   0.000177   0.000139
      6      -0.000752   0.001032   0.001163   0.011067   0.000192  -0.000968
      7       0.000034  -0.000395  -0.000081   0.004776   0.000227  -0.000087
      8       0.000370  -0.000320  -0.000484   0.000095   0.000016  -0.000215
      9       0.001834  -0.000038  -0.001598   0.087322   0.000197  -0.000148
     10       0.001461  -0.000084  -0.000986   0.039261   0.000053  -0.000053
     11       0.000224  -0.000004  -0.000092   0.003550   0.000004  -0.000030
     12      -0.000040   0.000023   0.000082  -0.002910  -0.000006  -0.000039
     13      -0.000074  -0.000023   0.000009  -0.001319   0.000013   0.000038
     14       0.000038   0.000050   0.000024  -0.000155   0.000001  -0.000072
     15       0.000454  -0.005633   0.028287   0.000304  -0.030989  -0.056630
     16      -0.002237   0.008102  -0.049666  -0.000827   0.008725   0.015845
     17       0.002970  -0.003998   0.031827   0.000716   0.035571   0.064829
     18       0.002549   0.034511   0.007352  -0.000214   0.054369  -0.029513
     19       0.005792   0.054282   0.013708   0.000113  -0.028660   0.014680
     20       0.000727  -0.005363  -0.000562   0.000090  -0.062307   0.033373
     21      -0.069068   0.005852   0.005350   0.001349  -0.000942   0.003717
     22       0.215203  -0.017657  -0.013867  -0.005257   0.000724  -0.004335
     23       0.883263  -0.070917  -0.056947  -0.019496   0.005260  -0.016985
     24       0.087142  -0.005576  -0.004921  -0.014511   0.000255  -0.000537
     25      -0.144497   0.011403   0.009289   0.022199  -0.001306   0.001999
     26       0.084327  -0.006924  -0.005965  -0.017166   0.000303  -0.002110
     27       0.160452  -0.009094  -0.005880   0.000886   0.000110  -0.001381
     28       0.294369  -0.016914  -0.013659   0.001459   0.000861  -0.004040
     29       0.031863  -0.001472  -0.001443   0.001139   0.000716  -0.000897
     30       0.004941  -0.013290  -0.015317  -0.094475  -0.001555   0.009148
     31      -0.000157   0.002388   0.002586   0.016227   0.001121  -0.001839
     32      -0.000308   0.002251   0.003493   0.007246   0.000200  -0.003541
     33       0.000708   0.000218  -0.000502  -0.036320  -0.000381   0.001161
     34       0.003396   0.000600  -0.001046  -0.070713   0.000625   0.001533
     35       0.001929   0.000109   0.001121  -0.008896   0.000730  -0.000265
     36      -0.012063  -0.001105   0.010792  -0.727125  -0.001634   0.002632
     37       0.001425  -0.000053  -0.001572   0.112262  -0.000118  -0.000542
     38       0.001345  -0.000235  -0.000742   0.032504   0.000011   0.000465
     39      -0.010242   0.001738   0.007417  -0.304691   0.000221  -0.000071
     40      -0.019281   0.002048   0.013856  -0.576269  -0.001153   0.000686
     41      -0.002737   0.001355   0.001875  -0.072017   0.000671  -0.000327
     42       0.000123  -0.000049  -0.000125   0.010950  -0.000276  -0.000033
     43       0.000381  -0.000177  -0.000184   0.015052  -0.000472   0.000113
     44       0.000065  -0.000228   0.000030  -0.004677  -0.000255   0.000079
     45      -0.000280   0.000016   0.000047  -0.000402  -0.000059   0.000179
     46       0.000475   0.000038  -0.000094  -0.000853   0.000155  -0.000345
     47      -0.000323   0.000277   0.000233   0.000003  -0.000222   0.000139
     48       0.000922  -0.000209  -0.000755   0.020852   0.000299   0.000458
     49      -0.000117   0.000152   0.000039  -0.000462   0.000103  -0.000044
     50      -0.000121   0.000130   0.000035   0.005798   0.000097  -0.000311
     51      -0.020691   0.120278  -0.560729  -0.008573   0.229861   0.429368
     52       0.014351  -0.093467   0.426383   0.006676  -0.174385  -0.335348
     53       0.008890  -0.047580   0.227563   0.003542  -0.087232  -0.163807
     54       0.017349  -0.045831   0.243914   0.004616   0.132944   0.242453
     55       0.008216  -0.025583   0.124092   0.002126   0.076066   0.143596
     56      -0.036800   0.108771  -0.575898  -0.010785  -0.331936  -0.601010
     57       0.025123   0.212497   0.043890   0.001035  -0.246676   0.130890
     58      -0.043188  -0.387347  -0.077571  -0.002244   0.489187  -0.261078
     59      -0.041329  -0.373321  -0.077740  -0.001958   0.454289  -0.237170
     60      -0.050788  -0.609056  -0.116918   0.000576  -0.396170   0.222967
     61      -0.017473  -0.225975  -0.041052   0.000128  -0.155202   0.091402
     62       0.036521   0.439186   0.084098  -0.000879   0.279159  -0.160616
                  60         61         62    
      0      -0.000010   0.000016   0.000009
      1      -0.000069   0.000057   0.000014
      2       0.000047  -0.000013   0.000037
      3      -0.000126  -0.000012   0.000036
      4       0.000113  -0.000008  -0.000096
      5      -0.000090  -0.000004  -0.000141
      6       0.000347   0.000820  -0.000271
      7      -0.000654   0.000431   0.000554
      8      -0.000325   0.000026  -0.000055
      9      -0.000793  -0.002344   0.000618
     10       0.001404  -0.001155  -0.000868
     11       0.001593  -0.000123  -0.000376
     12      -0.008645  -0.070710   0.035352
     13       0.014824  -0.038770  -0.065719
     14       0.037185  -0.001540   0.031373
     15       0.000080   0.000023  -0.000043
     16      -0.000003  -0.000004   0.000032
     17      -0.000073   0.000001   0.000053
     18       0.000019   0.000042   0.000008
     19       0.000042  -0.000019  -0.000011
     20       0.000061  -0.000021   0.000023
     21       0.000051  -0.000054  -0.000088
     22      -0.000044  -0.000000  -0.000086
     23      -0.000829  -0.000115  -0.000159
     24      -0.000541  -0.000003  -0.000007
     25       0.000616  -0.000074   0.000081
     26      -0.000075   0.000245  -0.000112
     27       0.000161  -0.000249  -0.000123
     28       0.000297  -0.000448  -0.000185
     29       0.000100   0.000043   0.000020
     30      -0.003020  -0.004634   0.002227
     31       0.000054  -0.000261  -0.000055
     32       0.001099   0.001233  -0.001060
     33       0.001673  -0.003059  -0.001219
     34       0.002295  -0.003653  -0.001826
     35       0.001135  -0.001594  -0.001117
     36       0.010066   0.019762  -0.010630
     37      -0.002069  -0.002085   0.002514
     38      -0.004443  -0.003394   0.001738
     39      -0.003792   0.009768   0.003106
     40      -0.008682   0.016661   0.007875
     41      -0.005051   0.004718   0.001981
     42      -0.277320   0.324202   0.180062
     43      -0.510981   0.625916   0.310021
     44      -0.095124   0.127087   0.070747
     45      -0.177302  -0.023781  -0.258124
     46       0.379030   0.015005   0.554778
     47      -0.366774  -0.022496  -0.557738
     48       0.576061   0.678665  -0.411244
     49      -0.076394  -0.104006   0.044664
     50      -0.060760  -0.083104   0.055666
     51      -0.000254  -0.000119   0.000254
     52       0.000271   0.000138  -0.000251
     53       0.000140  -0.000024  -0.000085
     54      -0.000276  -0.000080   0.000214
     55      -0.000016   0.000006   0.000114
     56      -0.000222   0.000138  -0.000227
     57       0.000073  -0.000154   0.000054
     58      -0.000292   0.000056  -0.000090
     59      -0.000347   0.000128  -0.000102
     60       0.000325  -0.000356   0.000028
     61       0.000004  -0.000202   0.000130
     62      -0.000022   0.000140  -0.000032


-----------
IR SPECTRUM
-----------

 Mode    freq (cm**-1)   T**2         TX         TY         TZ
-------------------------------------------------------------------
   6:        82.06    2.529516  (  1.461269   0.627611   0.017671)
   7:        88.46    4.575683  (  1.841307   0.994595   0.442779)
   8:       166.93    5.118044  ( -1.224420   1.825084   0.536570)
   9:       215.01    0.073769  ( -0.062124  -0.027115  -0.263010)
  10:       227.70    0.326796  (  0.152116  -0.058180   0.547970)
  11:       296.66   14.323453  (  0.131478   0.857423  -3.683883)
  12:       336.93    0.717196  (  0.126055  -0.278930  -0.789622)
  13:       354.88    0.428520  (  0.604332  -0.244065  -0.061120)
  14:       394.99    0.818222  (  0.504649  -0.284370   0.694755)
  15:       467.43    3.683384  ( -0.007785  -1.202059   1.496121)
  16:       736.57    9.321154  (  1.551724  -0.385145   2.600956)
  17:       771.83    5.908455  (  2.269254   0.856840  -0.157377)
  18:       792.01    0.548028  ( -0.664001  -0.223691  -0.238942)
  19:       887.69   15.015608  (  0.857227   2.796807  -2.541385)
  20:       893.84    4.000728  ( -0.466404   0.233889  -1.930930)
  21:       905.46    5.701193  ( -1.351263   0.361616  -1.935075)
  22:       945.10    9.440630  ( -0.414396  -0.321295  -3.027487)
  23:       952.18    1.403114  ( -0.112117  -1.176261  -0.083392)
  24:       965.87    8.306165  ( -2.036191  -1.189273  -1.657022)
  25:      1005.60    4.852073  ( -1.914537   1.086636   0.076447)
  26:      1032.17   12.008690  (  2.902615   0.655127   1.776041)
  27:      1055.93    2.677796  ( -1.250994  -0.263266  -1.021519)
  28:      1091.79    1.545637  (  0.237912   1.185780  -0.288029)
  29:      1108.03    0.476863  (  0.632313  -0.206475  -0.185501)
  30:      1127.03    9.062523  (  1.710089  -0.535967   2.418855)
  31:      1157.56   12.929451  (  0.397211  -3.050851   1.861178)
  32:      1188.38    0.306272  (  0.075822   0.469025  -0.283793)
  33:      1284.61    1.032167  ( -0.650177   0.094276   0.774951)
  34:      1307.91    1.634587  ( -0.399993   0.111874  -1.209164)
  35:      1341.89    2.811119  (  1.473348   0.800209  -0.005296)
  36:      1354.27    4.757228  ( -1.898987   0.052208   1.071612)
  37:      1382.26    0.875120  ( -0.706210   0.610012   0.065361)
  38:      1407.58   10.340947  (  0.918801  -0.429585  -3.051591)
  39:      1425.08    3.629270  (  1.396811  -0.133149  -1.288588)
  40:      1461.76    8.958679  ( -0.234685   2.983849  -0.015658)
  41:      1472.88    4.565443  (  0.128215   1.670500  -1.326059)
  42:      1487.91    8.263191  (  0.375568  -1.218631   2.576253)
  43:      1492.16    5.439666  ( -0.253276  -1.991006  -1.188028)
  44:      1501.68   16.001940  (  0.830266  -1.526335   3.603179)
  45:      1505.63  144.234450  (  2.220832  -4.188702 -11.034361)
  46:      1514.92    7.589852  (  1.858092  -0.900195  -1.824005)
  47:      1657.56   52.896971  ( -6.527062  -3.195980  -0.283095)
  48:      1664.19   36.473704  ( -2.295857   4.928442  -2.629298)
  49:      3019.80   23.215677  (  0.650343  -3.317906  -3.432817)
  50:      3039.90   24.376125  (  4.540986  -0.267303   1.919406)
  51:      3070.27   11.194475  (  3.177279   1.043480  -0.102591)
  52:      3101.37   11.591683  ( -0.249936  -3.126846   1.323650)
  53:      3105.75   10.494886  (  0.634982  -2.875626   1.349984)
  54:      3138.11    7.904522  ( -0.897227  -0.684319  -2.575114)
  55:      3144.87    8.239503  (  1.372206   2.337812  -0.944027)
  56:      3155.36    3.885849  (  1.400626  -1.315819   0.438994)
  57:      3165.97    1.025994  (  0.941389   0.180491   0.327418)
  58:      3229.76    0.927231  (  0.524148   0.195158  -0.783845)
  59:      3244.71    4.046774  ( -1.453522   0.417408   1.326581)
  60:      3422.12   45.681230  (  0.756964  -1.402359  -6.568228)
  61:      3503.26   87.221206  (  8.159786   4.538427   0.204390)
  62:      3509.51   95.634083  ( -4.191782   7.926649  -3.902728)

The first frequency considered to be a vibration is 6
The total number of vibrations considered is 57


--------------------------
THERMOCHEMISTRY AT 298.15K
--------------------------

Temperature         ... 298.15 K
Pressure            ... 1.00 atm
Total Mass          ... 100.18 AMU

Throughout the following assumptions are being made:
  (1) The electronic state is orbitally nondegenerate
  (2) There are no thermally accessible electronically excited states
  (3) Hindered rotations indicated by low frequency modes) are not
      treated as such but are treated as vibrations and this may
      case some error
  (4) All equations used are the standard statistical mechanics
      equations for an ideal gas
  (5) All vibrations are strinctly harmonic


------------
INNER ENERGY
------------

The inner energy is: U= E(el) + E(ZPE) + E(vib) + E(rot) + E(trans)
    E(el)   - is the total energy from the electronic structure calculation
              = E(kin-el) + E(nuc-el) + E(el-el) + E(nuc-nuc)
    E(ZPE)  - the the zero temperature vibrational energy from the frequency calculation
    E(vib)  - the the finite temperature correction to E(ZPE) due to population
              of excietd vibrational states
    E(rot)  - is the rotational thermal energy
    E(trans)- is the translational thermal energy

Summary of contributions to the inner energy U:
Electronic energy                ...   -291.30485897 Eh
Zero point energy                ...      0.19902334 Eh     124.89 kcal/mol
Thermal vibrational correction   ...      0.00579208 Eh       3.63 kcal/mol
Thermal rotational correction    ...      0.00141627 Eh       0.89 kcal/mol
Thermal translational correction ...      0.00141627 Eh       0.89 kcal/mol
-----------------------------------------------------------------------
Total thermal energy                   -291.09721101 Eh


Summary of corrections to the electronic energy:
(perhaps to be used in another calculation)
Total thermal correction                  0.00862462 Eh       5.41 kcal/mol
Non-thermal (ZPE) correction              0.19902334 Eh     124.89 kcal/mol
-----------------------------------------------------------------------
Total correction                          0.20764796 Eh     130.30 kcal/mol


--------
ENTHALPY
--------

The enthalpy is H = U + kB*T
                kB is Boltzmann's constant
Total free energy                 ...   -291.09721101 Eh 
Thermal Enthalpy correction       ...      0.00094421 Eh       0.59 kcal/mol
-----------------------------------------------------------------------
Total Enthalpy                    ...   -291.09626680 Eh


-------
ENTROPY
-------

The entropy contributions are T*S = T*(S(el)+S(vib)+S(rot)+S(trans)
     S(el)   - electronic entropy
     S(vib)  - vibrational entropy
     S(rot)  - rotational entropy
     S(trans)- translational entropy
The entropies will be listed as mutliplied by the temperature to get
units of energy

Electronic entropy                ...      0.00000000 Eh      0.00 kcal/mol
Vibrational entropy               ...      0.01030223 Eh      6.46 kcal/mol
Rotational entropy                ...      0.01224658 Eh      7.68 kcal/mol
Translational entropy             ...      0.01887386 Eh     11.84 kcal/mol
-----------------------------------------------------------------------
Final entropy term                ...      0.04142267 Eh     25.99 kcal/mol


CAUTION: The rotational entropy is not quite correctly treated here
         because it includes a symmetry number that is not yet correctly
         implemented in ORCA!
For a nonlinear molecule the correct rotational entropy is:
    S(rot) = R*(ln(qrot/sn)+1.5)
    R    = 8.31441 J/mol/K = 1.987191683e-3 kcal/mol/K
    qrot = 287564.0596025
    sn is the rotational symmetry number. We have assumed 3 here
       if it is different for your molecule then you should correct
       the printed rotational entropy by manually evaluating the equation
       as given above

For convenience we print out the resulting values for sn=1 - 12:
 sn= 1  qrot/sn=  287564.0596 T*S(rot)=     8.34 kcal/mol T*S(tot)=    26.64 kcal/mol
 sn= 2  qrot/sn=  143782.0298 T*S(rot)=     7.93 kcal/mol T*S(tot)=    26.23 kcal/mol
 sn= 3  qrot/sn=   95854.6865 T*S(rot)=     7.68 kcal/mol T*S(tot)=    25.99 kcal/mol
 sn= 4  qrot/sn=   71891.0149 T*S(rot)=     7.51 kcal/mol T*S(tot)=    25.82 kcal/mol
 sn= 5  qrot/sn=   57512.8119 T*S(rot)=     7.38 kcal/mol T*S(tot)=    25.69 kcal/mol
 sn= 6  qrot/sn=   47927.3433 T*S(rot)=     7.27 kcal/mol T*S(tot)=    25.58 kcal/mol
 sn= 7  qrot/sn=   41080.5799 T*S(rot)=     7.18 kcal/mol T*S(tot)=    25.49 kcal/mol
 sn= 8  qrot/sn=   35945.5075 T*S(rot)=     7.10 kcal/mol T*S(tot)=    25.41 kcal/mol
 sn= 9  qrot/sn=   31951.5622 T*S(rot)=     7.03 kcal/mol T*S(tot)=    25.34 kcal/mol
 sn=10  qrot/sn=   28756.4060 T*S(rot)=     6.97 kcal/mol T*S(tot)=    25.28 kcal/mol
 sn=11  qrot/sn=   26142.1872 T*S(rot)=     6.92 kcal/mol T*S(tot)=    25.22 kcal/mol
 sn=12  qrot/sn=   23963.6716 T*S(rot)=     6.86 kcal/mol T*S(tot)=    25.17 kcal/mol


-------------------
GIBBS FREE ENTHALPY
-------------------

The Gibbs free enthalpy is G = H - T*S

Total enthalpy                    ...   -291.09626680 Eh 
Total entropy correction          ...     -0.04142267 Eh    -25.99 kcal/mol
-----------------------------------------------------------------------
Final Gibbs free enthalpy         ...   -291.13768947 Eh

For completeness - the Gibbs free enthalpy minus the electronic energy
G-E(el)                           ...      0.16716949 Eh    104.90 kcal/mol


Timings for individual modules:

Sum of individual times         ...     3026.724 sec (=  50.445 min)
GTO integral calculation        ...       11.874 sec (=   0.198 min)   0.4 %
SCF iterations                  ...      312.153 sec (=   5.203 min)  10.3 %
SCF Gradient evaluation         ...      235.722 sec (=   3.929 min)   7.8 %
Geometry relaxation             ...        0.494 sec (=   0.008 min)   0.0 %
Analytical frequency calculation...     2466.481 sec (=  41.108 min)  81.5 %
                             ****ORCA TERMINATED NORMALLY****
TOTAL RUN TIME: 0 days 0 hours 50 minutes 28 seconds 757 msec
