
                                 *****************
                                 * O   R   C   A *
                                 *****************

           --- An Ab Initio, DFT and Semiempirical electronic structure package ---

                  #######################################################
                  #                        -***-                        #
                  #  Department of molecular theory and spectroscopy    #
                  #              Directorship: Frank Neese              #
                  # Max Planck Institute for Chemical Energy Conversion #
                  #                  D-45470 Muelheim/Ruhr              #
                  #                       Germany                       #
                  #                                                     #
                  #                  All rights reserved                #
                  #                        -***-                        #
                  #######################################################


                         Program Version 3.0.3 - RELEASE   -


 With contributions from (in alphabetic order):
   Ute Becker             : Parallelization
   Dmytro Bykov           : SCF Hessian
   Dmitry Ganyushin       : Spin-Orbit,Spin-Spin,Magnetic field MRCI
   Andreas Hansen         : Spin unrestricted coupled pair/coupled cluster methods
   Dimitrios Liakos       : Extrapolation schemes; parallel MDCI
   Robert Izsak           : Overlap fitted RIJCOSX, COSX-SCS-MP3
   Christian Kollmar      : KDIIS, OOCD, Brueckner-CCSD(T), CCSD density
   Simone Kossmann        : Meta GGA functionals, TD-DFT gradient, OOMP2, MP2 Hessian
   Taras Petrenko         : DFT Hessian,TD-DFT gradient, ASA and ECA modules, normal mode analysis, Resonance Raman, ABS, FL, XAS/XES, NRVS
   Christoph Reimann      : Effective Core Potentials
   Michael Roemelt        : Restricted open shell CIS
   Christoph Riplinger    : Improved optimizer, TS searches, QM/MM, DLPNO-CCSD
   Barbara Sandhoefer     : DKH picture change effects
   Igor Schapiro          : Molecular dynamics
   Kantharuban Sivalingam : CASSCF convergence, NEVPT2
   Boris Wezisla          : Elementary symmetry handling
   Frank Wennmohs         : Technical directorship


 We gratefully acknowledge several colleagues who have allowed us to
 interface, adapt or use parts of their codes:
   Stefan Grimme, W. Hujo, H. Kruse, T. Risthaus : VdW corrections, initial TS optimization,
                                                   DFT functionals, gCP
   Ed Valeev                                     : LibInt (2-el integral package), F12 methods
   Garnet Chan, S. Sharma, R. Olivares           : DMRG
   Ulf Ekstrom                                   : XCFun DFT Library
   Mihaly Kallay                                 : mrcc  (arbitrary order and MRCC methods)
   Andreas Klamt, Michael Diedenhofen            : otool_cosmo (COSMO solvation model)
   Frank Weinhold                                : gennbo (NPA and NBO analysis)
   Christopher J. Cramer and Donald G. Truhlar   : smd solvation model


 Your calculation uses the libint2 library for the computation of 2-el integrals
 For citations please refer to: http://libint.valeyev.net

 This ORCA versions uses:
   CBLAS   interface :  Fast vector & matrix operations
   LAPACKE interface :  Fast linear algebra routines
   SCALAPACK package :  Parallel linear algebra routines


Your calculation utilizes the basis: Ahlrichs-TZV
Cite in your paper:
H - Kr: A. Schaefer, H. Horn and R. Ahlrichs, J. Chem. Phys. 97, 2571 (1992).

The def2-TZV basis will be loaded
Cite in your paper:
 	F. Weigend, R. Ahlrichs, Phys. Chem. Chem. Phys. 2005, 7, 3297.

================================================================================
                                        WARNINGS
                       Please study these warnings very carefully!
================================================================================
Now building the actual basis set
WARNING: Geometry optimizations can change the point-group symmetry!

WARNING: Geometry Optimization
  ===> : Switching off AutoStart
         For restart on a previous wavefunction, please use MOREAD


INFO   : the flag for use of LIBINT has been found!

================================================================================
                                       INPUT FILE
================================================================================
NAME = 2001_+.inp
|  1> ! NORI PBE0 def2-TZVP UseSym TightOPT Freq TightSCF Grid3 FinalGrid5 XYZFile
|  2> % pal
|  3>     nprocs 8
|  4> end
|  5> %method
|  6>     SymThresh 5.0e-2
|  7> end
|  8> % geom 
|  9>     MaxIter 10
| 10> end 
| 11> % maxcore 2000
| 12> % output
| 13>     printlevel mini
| 14>     print[ P_Basis ] 0
| 15>     print[ P_SCFInfo ] 1
| 16>     print[ P_SCFIterInfo ] 1
| 17>     print[ P_OrbEn ] 0
| 18>     print[ P_Cartesian ] 0
| 19> end
| 20> % elprop
| 21>     Dipole false
| 22> end
| 23> *xyz 1 1
| 24>  C        0.9920764300     0.0307107228    -0.0952271110 
| 25>  C        2.1855540944     0.0896993328    -0.0071320183 
| 26>  C        3.5981088522     0.1790758483     0.1221504302 
| 27>  N        4.4143067806    -0.6070949614    -0.8688595818 
| 28>  C        4.4176051137     0.8809450525    -0.9097765212 
| 29>  C        5.6560917494     1.5053672067    -0.5491121012 
| 30>  N        6.6511239488     1.9889994988    -0.2405318220 
| 31>  H       -0.0733128256    -0.0226585531    -0.1710232072 
| 32>  H        4.0229600254     0.1288205984     1.1210829323 
| 33>  H        5.2561346497    -1.0751063611    -0.5396581543 
| 34>  H        3.9077847795    -1.0956286169    -1.6038088107 
| 35>  H        3.8958964018     1.2887702323    -1.7696840348 
| 36> *
| 37> 
| 38>                          ****END OF INPUT****
================================================================================

The point group is C1 - hence turning off symmetry
If this is a round-off problem, please increase the symmetry
        detection tolerance (%method SymThresh)


                       *****************************
                       * Geometry Optimization Run *
                       *****************************

Geometry optimization settings:
Update method            Update   .... BFGS
Choice of coordinates    CoordSys .... Redundant Internals
Initial Hessian          InHess   .... Almoef's Model

Convergence Tolerances:
Energy Change            TolE     ....  1.0000e-06 Eh
Max. Gradient            TolMAXG  ....  1.0000e-04 Eh/bohr
RMS Gradient             TolRMSG  ....  3.0000e-05 Eh/bohr
Max. Displacement        TolMAXD  ....  1.0000e-03 bohr
RMS Displacement         TolRMSD  ....  6.0000e-04 bohr

------------------------------------------------------------------------------
                        ORCA OPTIMIZATION COORDINATE SETUP
------------------------------------------------------------------------------

The optimization will be done in new redundant internal coordinates
Making redundant internal coordinates   ...  (new redundants) done
Evaluating the initial hessian          ...  (Almloef) done
Evaluating the coordinates              ...  done
Calculating the B-matrix                .... done
Calculating the G-matrix                .... done
Diagonalizing the G-matrix              .... done
The first mode is                       ....   30
The number of degrees of freedom        ....   30

    -----------------------------------------------------------------
                    Redundant Internal Coordinates


    -----------------------------------------------------------------
         Definition                    Initial Value    Approx d2E/dq
    -----------------------------------------------------------------
      1. B(C   1,C   0)                  1.1982         1.264093   
      2. B(C   2,C   1)                  1.4213         0.556989   
      3. B(N   3,C   2)                  1.5054         0.366185   
      4. B(C   4,N   3)                  1.4886         0.389543   
      5. B(C   4,C   2)                  1.4930         0.427955   
      6. B(C   5,C   4)                  1.4331         0.533267   
      7. B(N   6,C   5)                  1.1486         1.358511   
      8. B(H   7,C   0)                  1.0694         0.388388   
      9. B(H   8,C   2)                  1.0867         0.364508   
     10. B(H   9,N   3)                  1.0179         0.420359   
     11. B(H  10,N   3)                  1.0175         0.420893   
     12. B(H  11,C   4)                  1.0853         0.366330   
     13. L(C   1,C   0,H   7, 2)       180.1589         0.404438   
     14. L(C   1,C   0,H   7, 1)       180.0189         0.404438   
     15. L(C   0,C   1,C   2,N   3, 2) 180.0065         0.484725   
     16. L(C   0,C   1,C   2,N   3, 1) 181.2753         0.484725   
     17. A(C   1,C   2,N   3)          116.4951         0.385495   
     18. A(N   3,C   2,C   4)           59.5303         0.368328   
     19. A(C   1,C   2,H   8)          117.9870         0.347295   
     20. A(C   1,C   2,C   4)          120.8115         0.398691   
     21. A(N   3,C   2,H   8)          111.6546         0.321970   
     22. A(C   4,C   2,H   8)          116.2638         0.332339   
     23. A(C   2,N   3,C   4)           59.8195         0.360195   
     24. A(C   4,N   3,H  10)          117.4634         0.330227   
     25. A(H   9,N   3,H  10)          115.1217         0.300528   
     26. A(C   2,N   3,H  10)          117.1492         0.326874   
     27. A(C   4,N   3,H   9)          117.8185         0.330158   
     28. A(C   2,N   3,H   9)          118.3986         0.326806   
     29. A(C   2,C   4,N   3)           60.6502         0.372264   
     30. A(C   5,C   4,H  11)          116.8129         0.345051   
     31. A(N   3,C   4,H  11)          113.3490         0.325521   
     32. A(C   2,C   4,H  11)          117.4141         0.332614   
     33. A(N   3,C   4,C   5)          115.5018         0.386727   
     34. A(C   2,C   4,C   5)          120.3466         0.395655   
     35. L(C   4,C   5,N   6,N   3, 2) 181.5655         0.484009   
     36. L(C   4,C   5,N   6,N   3, 1) 179.0389         0.484009   
     37. D(H  10,N   3,C   2,C   4)   -107.5374         0.012310   
     38. D(C   4,N   3,C   2,C   1)    111.7625         0.012310   
     39. D(H  10,N   3,C   2,C   1)      4.2250         0.012310   
     40. D(H  10,N   3,C   2,H   8)    143.8718         0.012310   
     41. D(H   9,N   3,C   2,C   1)   -140.8235         0.012310   
     42. D(H   9,N   3,C   2,C   4)    107.4141         0.012310   
     43. D(C   4,N   3,C   2,H   8)   -108.5908         0.012310   
     44. D(H   9,N   3,C   2,H   8)     -1.1767         0.012310   
     45. D(H  11,C   4,C   2,C   1)     -1.8414         0.014480   
     46. D(H  11,C   4,N   3,H  10)     -2.4102         0.013880   
     47. D(C   5,C   4,C   2,N   3)   -104.0730         0.014480   
     48. D(C   5,C   4,C   2,H   8)     -3.2885         0.014480   
     49. D(C   5,C   4,C   2,C   1)    151.3436         0.014480   
     50. D(H  11,C   4,C   2,N   3)    102.7420         0.014480   
     51. D(C   5,C   4,N   3,H   9)      3.5866         0.013880   
     52. D(N   3,C   4,C   2,H   8)    100.7844         0.014480   
     53. D(C   5,C   4,N   3,C   2)    111.9603         0.013880   
     54. D(C   2,C   4,N   3,H  10)    107.0159         0.013880   
     55. D(N   3,C   4,C   2,C   1)   -104.5835         0.014480   
     56. D(C   5,C   4,N   3,H  10)   -141.0238         0.013880   
     57. D(H  11,C   4,N   3,C   2)   -109.4261         0.013880   
     58. D(H  11,C   4,N   3,H   9)    142.2002         0.013880   
     59. D(C   2,C   4,N   3,H   9)   -108.3737         0.013880   
     60. D(H  11,C   4,C   2,H   8)   -156.4735         0.014480   
    -----------------------------------------------------------------

Number of atoms                         .... 12
Number of degrees of freedom            .... 60

         *************************************************************
         *                GEOMETRY OPTIMIZATION CYCLE   1            *
         *************************************************************


           ************************************************************
           *        Program running with 8 parallel MPI-processes     *
           *              working on a common directory               *
           ************************************************************
           ************************************************************
           *              Shut down parallel processing               *
           ************************************************************


           ************************************************************
           *        Program running with 8 parallel MPI-processes     *
           *              working on a common directory               *
           ************************************************************
------------
SCF SETTINGS
------------
Hamiltonian:
 Density Functional     Method          .... DFT(GTOs)
 Exchange Functional    Exchange        .... PBE
   PBE kappa parameter  XKappa          ....  0.804000
 Correlation Functional Correlation     .... PBE
 LDA part of GGA corr.  LDAOpt          .... PW91-LDA
 Gradients option       PostSCFGGA      .... off
 Hybrid DFT is turned on
   Fraction HF Exchange ScalHFX         ....  0.250000
   Scaling of DF-GGA-X  ScalDFX         ....  0.750000
   Scaling of DF-GGA-C  ScalDFC         ....  1.000000
   Scaling of DF-LDA-C  ScalLDAC        ....  1.000000
   Perturbative correction              ....  0.000000
   NL short-range parameter             ....  6.900000


General Settings:
 Integral files         IntName         .... 2001_+
 Hartree-Fock type      HFTyp           .... RHF
 Total Charge           Charge          ....    1
 Multiplicity           Mult            ....    1
 Number of Electrons    NEL             ....   48
 Basis Dimension        Dim             ....  247
 Nuclear Repulsion      ENuc            ....    247.6623687787 Eh

Convergence Acceleration:
 DIIS                   CNVDIIS         .... on
   Start iteration      DIISMaxIt       ....    12
   Startup error        DIISStart       ....  0.200000
   # of expansion vecs  DIISMaxEq       ....     5
   Bias factor          DIISBfac        ....   1.050
   Max. coefficient     DIISMaxC        ....  10.000
 Newton-Raphson         CNVNR           .... off
 SOSCF                  CNVSOSCF        .... on
   Start iteration      SOSCFMaxIt      ....   150
   Startup grad/error   SOSCFStart      ....  0.003300
 Level Shifting         CNVShift        .... on
   Level shift para.    LevelShift      ....    0.2500
   Turn off err/grad.   ShiftErr        ....    0.0010
 Zerner damping         CNVZerner       .... off
 Static damping         CNVDamp         .... on
   Fraction old density DampFac         ....    0.7000
   Max. Damping (<1)    DampMax         ....    0.9800
   Min. Damping (>=0)   DampMin         ....    0.0000
   Turn off err/grad.   DampErr         ....    0.1000
 Fernandez-Rico         CNVRico         .... off

SCF Procedure:
 Maximum # iterations   MaxIter         ....   125
 SCF integral mode      SCFMode         .... Direct
   Integral package                     .... LIBINT
 Reset frequeny         DirectResetFreq ....    20
 Integral Threshold     Thresh          ....  2.500e-11 Eh
 Primitive CutOff       TCut            ....  2.500e-12 Eh

Convergence Tolerance:
 Convergence Check Mode ConvCheckMode   .... Total+1el-Energy
 Energy Change          TolE            ....  1.000e-08 Eh
 1-El. energy change                    ....  1.000e-05 Eh
 Orbital Gradient       TolG            ....  1.000e-05
 Orbital Rotation angle TolX            ....  1.000e-05
 DIIS Error             TolErr          ....  5.000e-07


Diagonalization of the overlap matrix:
Smallest eigenvalue                        ... 1.930e-05
Time for diagonalization                   ...    0.210 sec
Threshold for overlap eigenvalues          ... 1.000e-08
Number of eigenvalues below threshold      ... 0
Time for construction of square roots      ...    0.020 sec
Total time needed                          ...    0.230 sec

-------------------
DFT GRID GENERATION
-------------------

General Integration Accuracy     IntAcc      ...  4.340
Radial Grid Type                 RadialGrid  ... Gauss-Chebyshev
Angular Grid (max. acc.)         AngularGrid ... Lebedev-194
Angular grid pruning method      GridPruning ... 3 (G Style)
Weight generation scheme         WeightScheme... Becke
Basis function cutoff            BFCut       ...    1.0000e-11
Integration weight cutoff        WCut        ...    1.0000e-14
Grids for H and He will be reduced by one unit

# of grid points (after initial pruning)     ...  30688 (   0.0 sec)
# of grid points (after weights+screening)   ...  28844 (   0.2 sec)
nearest neighbour list constructed           ...    0.0 sec
Grid point re-assignment to atoms done       ...    0.0 sec
Grid point division into batches done        ...    0.1 sec
Reduced shell lists constructed in    0.2 sec

Total number of grid points                  ...    28844
Total number of batches                      ...      456
Average number of points per batch           ...       63
Average number of grid points per atom       ...     2404
Average number of shells per batch           ...    64.72 (66.73%)
Average number of basis functions per batch  ...   165.90 (67.16%)
Average number of large shells per batch     ...    50.53 (78.08%)
Average number of large basis fcns per batch ...   128.74 (77.60%)
Maximum spatial batch extension              ...   5.49, 14.71, 16.10 au
Average spatial batch extension              ...   0.23,  0.32,  0.33 au

Time for grid setup =    0.610 sec

Loading Hartree-Fock densities                     ... done
Calculating cut-offs                               ... done
Setting up the integral package                    ... done
Initializing the effective Hamiltonian             ... done
Starting the Coulomb interaction                   ... done (   0.0 sec)
Reading the grid                                   ... done
Mapping shells                                     ... done
Starting the XC term evaluation                    ... done (   0.4 sec)
  promolecular density results
     # of electrons  =     48.999729366
     EX              =    -40.059705324
     EC              =     -1.599811764
     EX+EC           =    -41.659517088
Transforming the Hamiltonian                       ... done (   0.0 sec)
Diagonalizing the Hamiltonian                      ... done (   0.0 sec)
Back transforming the eigenvectors                 ... done (   0.0 sec)
Now organizing SCF variables                       ... done
--------------
SCF ITERATIONS
--------------
ITER       Energy         Delta-E        Max-DP      RMS-DP      [F,P]     Damp
               ***  Starting incremental Fock matrix formation  ***
  0   -302.2019112723   0.000000000000 0.08674681  0.00147844  0.2881574 0.7000
  1   -302.2906307066  -0.088719434314 0.06096585  0.00103766  0.1031012 0.7000
                               ***Turning on DIIS***
  2   -302.3200919893  -0.029461282748 0.07379942  0.00165959  0.0347238 0.0000
  3   -302.3751536813  -0.055061691937 0.07301926  0.00092052  0.0550190 0.0000
  4   -302.3829403660  -0.007786684710 0.02253228  0.00030736  0.0366920 0.0000
  5   -302.3851728795  -0.002232513529 0.00776311  0.00010472  0.0048114 0.0000
                      *** Initiating the SOSCF procedure ***
                           *** Shutting down DIIS ***
                      *** Re-Reading the Fockian *** 
                      *** Removing any level shift *** 
ITER      Energy       Delta-E        Grad      Rot      Max-DP    RMS-DP
  6   -302.38523086  -0.0000579796  0.000349  0.000349  0.002100  0.000033
               *** Restarting incremental Fock matrix formation ***
  7   -302.38523961  -0.0000087531  0.000184  0.000506  0.001008  0.000019
  8   -302.38523888   0.0000007355  0.000287  0.000379  0.000358  0.000007
  9   -302.38524048  -0.0000015995  0.000032  0.000096  0.000107  0.000003
 10   -302.38524048  -0.0000000003  0.000043  0.000041  0.000031  0.000001
 11   -302.38524050  -0.0000000277  0.000011  0.000027  0.000030  0.000001
 12   -302.38524050   0.0000000039  0.000016  0.000017  0.000024  0.000000
 13   -302.38524051  -0.0000000063  0.000003  0.000007  0.000010  0.000000
 14   -302.38524051  -0.0000000002  0.000003  0.000004  0.000004  0.000000
                  ***Gradient check signals convergence***
              ***Rediagonalizing the Fockian in SOSCF/NRSCF***

               *****************************************************
               *                     SUCCESS                       *
               *           SCF CONVERGED AFTER  15 CYCLES          *
               *****************************************************

Setting up the final grid:

General Integration Accuracy     IntAcc      ...  5.010
Radial Grid Type                 RadialGrid  ... Gauss-Chebyshev
Angular Grid (max. acc.)         AngularGrid ... Lebedev-434
Angular grid pruning method      GridPruning ... 3 (G Style)
Weight generation scheme         WeightScheme... Becke
Basis function cutoff            BFCut       ...    1.0000e-11
Integration weight cutoff        WCut        ...    1.0000e-14
Grids for H and He will be reduced by one unit

# of grid points (after initial pruning)     ... 108130 (   0.0 sec)
# of grid points (after weights+screening)   ... 100857 (   0.3 sec)
nearest neighbour list constructed           ...    0.0 sec
Grid point re-assignment to atoms done       ...    0.0 sec
Grid point division into batches done        ...    0.7 sec
Reduced shell lists constructed in    0.8 sec

Total number of grid points                  ...   100857
Total number of batches                      ...     1582
Average number of points per batch           ...       63
Average number of grid points per atom       ...     8405
Average number of shells per batch           ...    63.13 (65.08%)
Average number of basis functions per batch  ...   161.63 (65.44%)
Average number of large shells per batch     ...    49.02 (77.65%)
Average number of large basis fcns per batch ...   124.39 (76.96%)
Maximum spatial batch extension              ...   4.51, 10.25, 13.71 au
Average spatial batch extension              ...   0.17,  0.20,  0.21 au

Final grid set up in    1.8 sec
Final integration                            ... done (   0.6 sec)
Change in XC energy                          ...     0.000393026
Integrated number of electrons               ...    48.000001791
Previous integrated no of electrons          ...    48.000664563
Total Energy       :         -302.38484748 Eh           -8228.31002 eV
  Last Energy change         ...   -6.2738e-10  Tolerance :   1.0000e-08
  Last MAX-Density change    ...    6.8882e-06  Tolerance :   1.0000e-07
             **** THE GBW FILE WAS UPDATED (2001_+.gbw) ****
             **** DENSITY FILE WAS UPDATED (2001_+.scfp.tmp) ****
             **** ENERGY FILE WAS UPDATED (2001_+.en.tmp) ****
Total SCF time: 0 days 0 hours 1 min 13 sec 
           ************************************************************
           *              Shut down parallel processing               *
           ************************************************************

-------------------------   --------------------
FINAL SINGLE POINT ENERGY      -302.384847481369
-------------------------   --------------------



           ************************************************************
           *        Program running with 8 parallel MPI-processes     *
           *              working on a common directory               *
           ************************************************************
------------------------------------------------------------------------------
                         ORCA SCF GRADIENT CALCULATION
------------------------------------------------------------------------------

Gradient of the Kohn-Sham DFT energy:
Kohn-Sham wavefunction type      ... RKS
Hartree-Fock exchange scaling    ...    0.250
Number of operators              ...    1
Number of atoms                  ...   12
Basis set dimensions             ...  247
Integral neglect threshold       ... 2.5e-11
Integral primitive cutoff        ... 2.5e-12

Nuclear repulsion gradient       ... done
One Electron Gradient            ... done
Pre-screening matrix             ... done
Starting the two electron gradient:
Two electron gradient done
Exchange-correlation gradient    ... done

------------------
CARTESIAN GRADIENT
------------------

   1   C   :    0.000164679    0.000143441   -0.000064618
   2   C   :   -0.000043666   -0.000205356    0.000016158
   3   C   :   -0.000142322    0.000064211    0.000104207
   4   N   :    0.000010505    0.000145633   -0.000076584
   5   C   :    0.000168707   -0.000065965   -0.000080491
   6   C   :   -0.000166384   -0.000007324    0.000055884
   7   N   :    0.000076269   -0.000006367   -0.000000838
   8   H   :   -0.000078225   -0.000054393    0.000059937
   9   H   :    0.000070946    0.000047544   -0.000010603
  10   H   :    0.000007580   -0.000021687    0.000009424
  11   H   :   -0.000026235   -0.000060933   -0.000039081
  12   H   :   -0.000041855    0.000021196    0.000026605

Norm of the cartesian gradient     ...    0.000513977
RMS gradient                       ...    0.000085663
MAX gradient                       ...    0.000205356

-------
TIMINGS
-------

Total SCF gradient time            ...       22.991 sec

One electron gradient       ....       0.104 sec  (  0.5%)
Prescreening matrices       ....       0.445 sec  (  1.9%)
Two electron gradient       ....      17.691 sec  ( 76.9%)
XC gradient                 ....       1.584 sec  (  6.9%)
           ************************************************************
           *              Shut down parallel processing               *
           ************************************************************
------------------------------------------------------------------------------
                         ORCA GEOMETRY RELAXATION STEP
------------------------------------------------------------------------------

Reading the OPT-File                    .... done
Getting information on internals        .... done
Copying old internal coords+grads       .... done
Making the new internal coordinates     .... (new redundants).... done
Validating the new internal coordinates .... (new redundants).... done
Calculating the B-matrix                .... done
Calculating the G,G- and P matrices     .... done
Transforming gradient to internals      .... done
Projecting the internal gradient        .... done
Number of atoms                         ....  12
Number of internal coordinates          ....  60
Current Energy                          ....  -302.384847481 Eh
Current gradient norm                   ....     0.000513977 Eh/bohr
Maximum allowed component of the step   ....  0.300
Current trust radius                    ....  0.300
Evaluating the initial hessian          ....  (Almloef) done
Projecting the Hessian                  .... done
Forming the augmented Hessian           .... done
Diagonalizing the augmented Hessian     .... done
Last element of RFO vector              ....  0.999998768
Lowest eigenvalues of augmented Hessian:
 -0.000000329  0.035793059  0.047231551  0.049224476  0.051526092
Length of the computed step             ....  0.001569814
The final length of the internal step   ....  0.001569814
Converting the step to cartesian space:
 Initial RMS(Int)=    0.0002026621
Transforming coordinates:
 Iter   0:  RMS(Cart)=    0.0005468478 RMS(Int)=    0.0002014213
 Iter   1:  RMS(Cart)=    0.0000114527 RMS(Int)=    0.0000052422
 Iter   2:  RMS(Cart)=    0.0000056581 RMS(Int)=    0.0000026136
 Iter   3:  RMS(Cart)=    0.0000028091 RMS(Int)=    0.0000013037
 Iter   4:  RMS(Cart)=    0.0000013949 RMS(Int)=    0.0000006505
 Iter   5:  RMS(Cart)=    0.0000006927 RMS(Int)=    0.0000003247
 Iter   6:  RMS(Cart)=    0.0000003441 RMS(Int)=    0.0000001621
 Iter   7:  RMS(Cart)=    0.0000001709 RMS(Int)=    0.0000000809
 Iter   8:  RMS(Cart)=    0.0000000849 RMS(Int)=    0.0000000404
done
Storing new coordinates                 .... done

                                .--------------------.
          ----------------------|Geometry convergence|---------------------
          Item                value                 Tolerance   Converged
          -----------------------------------------------------------------
          RMS gradient        0.00003911            0.00003000      NO
          MAX gradient        0.00010119            0.00010000      NO
          RMS step            0.00020266            0.00060000      YES
          MAX step            0.00064196            0.00100000      YES
          ....................................................
          Max(Bonds)      0.0001      Max(Angles)    0.02
          Max(Dihed)        0.04      Max(Improp)    0.00
          -----------------------------------------------------------------

The optimization has not yet converged - more geometry cycles are needed


    ---------------------------------------------------------------------------
                         Redundant Internal Coordinates
                            (Angstroem and degrees)

        Definition                    Value    dE/dq     Step     New-Value
    ----------------------------------------------------------------------------
     1. B(C   1,C   0)                1.1982 -0.000099  0.0000    1.1982   
     2. B(C   2,C   1)                1.4213 -0.000021  0.0000    1.4213   
     3. B(N   3,C   2)                1.5054 -0.000077  0.0001    1.5056   
     4. B(C   4,N   3)                1.4886 -0.000012  0.0000    1.4886   
     5. B(C   4,C   2)                1.4930  0.000041 -0.0001    1.4929   
     6. B(C   5,C   4)                1.4331 -0.000101  0.0001    1.4332   
     7. B(N   6,C   5)                1.1486  0.000071 -0.0000    1.1485   
     8. B(H   7,C   0)                1.0694  0.000071 -0.0001    1.0693   
     9. B(H   8,C   2)                1.0867  0.000070 -0.0001    1.0866   
    10. B(H   9,N   3)                1.0179 -0.000003  0.0000    1.0179   
    11. B(H  10,N   3)                1.0175  0.000030 -0.0000    1.0175   
    12. B(H  11,C   4)                1.0853 -0.000011  0.0000    1.0853   
    13. L(C   1,C   0,H   7, 2)       180.16 -0.000040    0.01    180.16   
    14. L(C   1,C   0,H   7, 1)       180.02 -0.000077    0.01    180.03   
    15. L(C   0,C   1,C   2,N   3, 2) 180.01  0.000033   -0.00    180.00   
    16. L(C   0,C   1,C   2,N   3, 1) 181.28 -0.000055    0.01    181.28   
    17. A(C   1,C   2,N   3)          116.50 -0.000048    0.01    116.51   
    18. A(N   3,C   2,C   4)           59.53  0.000003    0.00     59.53   
    19. A(C   1,C   2,H   8)          117.99  0.000063   -0.02    117.97   
    20. A(C   1,C   2,C   4)          120.81 -0.000054    0.01    120.82   
    21. A(N   3,C   2,H   8)          111.65 -0.000001   -0.00    111.65   
    22. A(C   4,C   2,H   8)          116.26 -0.000002    0.00    116.27   
    23. A(C   2,N   3,C   4)           59.82  0.000035   -0.01     59.81   
    24. A(C   4,N   3,H  10)          117.46 -0.000050    0.02    117.48   
    25. A(H   9,N   3,H  10)          115.12  0.000026   -0.00    115.12   
    26. A(C   2,N   3,H  10)          117.15 -0.000044    0.01    117.15   
    27. A(C   4,N   3,H   9)          117.82  0.000009    0.00    117.82   
    28. A(C   2,N   3,H   9)          118.40  0.000021   -0.01    118.39   
    29. A(C   2,C   4,N   3)           60.65 -0.000038    0.01     60.66   
    30. A(C   5,C   4,H  11)          116.81  0.000011   -0.01    116.81   
    31. A(N   3,C   4,H  11)          113.35 -0.000021    0.01    113.36   
    32. A(C   2,C   4,H  11)          117.41 -0.000027    0.01    117.42   
    33. A(N   3,C   4,C   5)          115.50  0.000010    0.01    115.51   
    34. A(C   2,C   4,C   5)          120.35  0.000036   -0.02    120.33   
    35. L(C   4,C   5,N   6,N   3, 2) 181.57 -0.000018    0.00    181.57   
    36. L(C   4,C   5,N   6,N   3, 1) 179.04 -0.000002    0.00    179.04   
    37. D(H  10,N   3,C   2,C   4)   -107.54  0.000029   -0.01   -107.55   
    38. D(C   4,N   3,C   2,C   1)    111.76 -0.000043    0.01    111.77   
    39. D(H  10,N   3,C   2,C   1)      4.23 -0.000014   -0.01      4.22   
    40. D(H  10,N   3,C   2,H   8)    143.87  0.000029   -0.02    143.85   
    41. D(H   9,N   3,C   2,C   1)   -140.82 -0.000028    0.01   -140.81   
    42. D(H   9,N   3,C   2,C   4)    107.41  0.000015    0.00    107.42   
    43. D(C   4,N   3,C   2,H   8)   -108.59  0.000001   -0.00   -108.60   
    44. D(H   9,N   3,C   2,H   8)     -1.18  0.000016   -0.00     -1.18   
    45. D(H  11,C   4,C   2,C   1)     -1.84  0.000006   -0.00     -1.84   
    46. D(H  11,C   4,N   3,H  10)     -2.41  0.000015   -0.01     -2.42   
    47. D(C   5,C   4,C   2,N   3)   -104.07  0.000021   -0.02   -104.10   
    48. D(C   5,C   4,C   2,H   8)     -3.29  0.000021   -0.03     -3.32   
    49. D(C   5,C   4,C   2,C   1)    151.34  0.000055   -0.04    151.31   
    50. D(H  11,C   4,C   2,N   3)    102.74 -0.000028    0.01    102.75   
    51. D(C   5,C   4,N   3,H   9)      3.59 -0.000006   -0.01      3.58   
    52. D(N   3,C   4,C   2,H   8)    100.78  0.000000   -0.01    100.78   
    53. D(C   5,C   4,N   3,C   2)    111.96  0.000028   -0.02    111.94   
    54. D(C   2,C   4,N   3,H  10)    107.02 -0.000018   -0.00    107.01   
    55. D(N   3,C   4,C   2,C   1)   -104.58  0.000034   -0.01   -104.60   
    56. D(C   5,C   4,N   3,H  10)   -141.02  0.000010   -0.02   -141.05   
    57. D(H  11,C   4,N   3,C   2)   -109.43  0.000032   -0.01   -109.43   
    58. D(H  11,C   4,N   3,H   9)    142.20 -0.000001    0.01    142.21   
    59. D(C   2,C   4,N   3,H   9)   -108.37 -0.000034    0.02   -108.36   
    60. D(H  11,C   4,C   2,H   8)   -156.47 -0.000028    0.00   -156.47   
    ----------------------------------------------------------------------------

         *************************************************************
         *                GEOMETRY OPTIMIZATION CYCLE   2            *
         *************************************************************
---------------------------------
CARTESIAN COORDINATES (ANGSTROEM)
---------------------------------
  C     -3.036083    0.028999   -0.560137
  C     -1.891339    0.254580   -0.287369
  C     -0.530483    0.538123    0.008848
  N      0.000090   -0.000141    1.310951
  C      0.492975   -0.548753    0.017840
  C      1.860938   -0.257366   -0.295032
  N      2.953606    0.000410   -0.537471
  H     -4.058101   -0.169351   -0.804226
  H     -0.164287    1.541828   -0.189002
  H      0.635059    0.582511    1.852634
  H     -0.625235   -0.584634    1.861077
  H      0.150371   -1.559568   -0.179268

----------------------------
CARTESIAN COORDINATES (A.U.)
----------------------------
  NO LB      ZA    FRAG    MASS        X           Y           Z
   0 C     6.0000    0    12.011         -5.737366215580887          0.054799571576540         -1.058506301523746
   1 C     6.0000    0    12.011         -3.574113316583560          0.481085948551007         -0.543048425111488
   2 C     6.0000    0    12.011         -1.002468034528712          1.016904405305532          0.016720399311061
   3 N     7.0000    0    14.007          0.000169452163798         -0.000266720707965          2.477338003859189
   4 C     6.0000    0    12.011          0.931588206189349         -1.036992495898352          0.033711795871871
   5 C     6.0000    0    12.011          3.516664068452044         -0.486350365766352         -0.557530570607134
   6 N     7.0000    0    14.007          5.581507174840102          0.000773915114458         -1.015672695174705
   7 H     1.0000    0     1.008         -7.668698887852158         -0.320026982612210         -1.519766663816446
   8 H     1.0000    0     1.008         -0.310458275102339          2.913633491258147         -0.357162901241272
   9 H     1.0000    0     1.008          1.200088013147102          1.100785566711276          3.500971109085323
  10 H     1.0000    0     1.008         -1.181522540965873         -1.104798381820891          3.516926618176956
  11 H     1.0000    0     1.008          0.284160519773708         -2.947156780762859         -0.338767484754243

--------------------------------
INTERNAL COORDINATES (ANGSTROEM)
--------------------------------
 C      0   0   0   0.000000     0.000     0.000
 C      1   0   0   1.198219     0.000     0.000
 C      2   1   0   1.421292   178.718     0.000
 N      3   2   1   1.505559   116.510   179.939
 C      4   3   2   1.488640    59.813   111.771
 C      5   4   3   1.433220   115.513   111.939
 N      6   5   4   1.148541   178.708   317.411
 H      1   2   3   1.069318   179.836   311.185
 H      3   2   1   1.086586   117.970    42.908
 H      4   3   2   1.017885   118.388   219.188
 H      4   3   2   1.017498   117.155     4.219
 H      5   4   3   1.085346   113.357   250.568

---------------------------
INTERNAL COORDINATES (A.U.)
---------------------------
 C      0   0   0   0.000000     0.000     0.000
 C      1   0   0   2.264306     0.000     0.000
 C      2   1   0   2.685852   178.718     0.000
 N      3   2   1   2.845094   116.510   179.939
 C      4   3   2   2.813121    59.813   111.771
 C      5   4   3   2.708393   115.513   111.939
 N      6   5   4   2.170429   178.708   317.411
 H      1   2   3   2.020718   179.836   311.185
 H      3   2   1   2.053350   117.970    42.908
 H      4   3   2   1.923524   118.388   219.188
 H      4   3   2   1.922792   117.155     4.219
 H      5   4   3   2.051007   113.357   250.568



           ************************************************************
           *        Program running with 8 parallel MPI-processes     *
           *              working on a common directory               *
           ************************************************************
           ************************************************************
           *              Shut down parallel processing               *
           ************************************************************


           ************************************************************
           *        Program running with 8 parallel MPI-processes     *
           *              working on a common directory               *
           ************************************************************

Diagonalization of the overlap matrix:
Smallest eigenvalue                        ... 1.930e-05
Time for diagonalization                   ...    0.440 sec
Threshold for overlap eigenvalues          ... 1.000e-08
Number of eigenvalues below threshold      ... 0
Time for construction of square roots      ...    0.020 sec
Total time needed                          ...    0.460 sec

-------------------
DFT GRID GENERATION
-------------------

General Integration Accuracy     IntAcc      ...  4.340
Radial Grid Type                 RadialGrid  ... Gauss-Chebyshev
Angular Grid (max. acc.)         AngularGrid ... Lebedev-194
Angular grid pruning method      GridPruning ... 3 (G Style)
Weight generation scheme         WeightScheme... Becke
Basis function cutoff            BFCut       ...    1.0000e-11
Integration weight cutoff        WCut        ...    1.0000e-14
Grids for H and He will be reduced by one unit

# of grid points (after initial pruning)     ...  30688 (   0.0 sec)
# of grid points (after weights+screening)   ...  28845 (   0.1 sec)
nearest neighbour list constructed           ...    0.0 sec
Grid point re-assignment to atoms done       ...    0.0 sec
Grid point division into batches done        ...    0.1 sec
Reduced shell lists constructed in    0.1 sec

Total number of grid points                  ...    28845
Total number of batches                      ...      456
Average number of points per batch           ...       63
Average number of grid points per atom       ...     2404
Average number of shells per batch           ...    64.71 (66.71%)
Average number of basis functions per batch  ...   165.88 (67.16%)
Average number of large shells per batch     ...    50.53 (78.10%)
Average number of large basis fcns per batch ...   128.74 (77.61%)
Maximum spatial batch extension              ...   5.49, 14.71, 16.10 au
Average spatial batch extension              ...   0.23,  0.32,  0.33 au

Time for grid setup =    0.503 sec

--------------
SCF ITERATIONS
--------------
ITER       Energy         Delta-E        Max-DP      RMS-DP      [F,P]     Damp
               ***  Starting incremental Fock matrix formation  ***
                      *** Initiating the SOSCF procedure ***
                      *** Re-Reading the Fockian *** 
                      *** Removing any level shift *** 
ITER      Energy       Delta-E        Grad      Rot      Max-DP    RMS-DP
  0   -302.38524021 -302.3852402134  0.000213  0.000213  0.000153  0.000004
               *** Restarting incremental Fock matrix formation ***
  1   -302.38524067  -0.0000004524  0.000021  0.000049  0.000053  0.000002
  2   -302.38524070  -0.0000000309  0.000016  0.000038  0.000068  0.000001
  3   -302.38524069   0.0000000105  0.000024  0.000024  0.000050  0.000001
                  ***Gradient check signals convergence***
              ***Rediagonalizing the Fockian in SOSCF/NRSCF***

               *****************************************************
               *                     SUCCESS                       *
               *           SCF CONVERGED AFTER   4 CYCLES          *
               *****************************************************

Setting up the final grid:

General Integration Accuracy     IntAcc      ...  5.010
Radial Grid Type                 RadialGrid  ... Gauss-Chebyshev
Angular Grid (max. acc.)         AngularGrid ... Lebedev-434
Angular grid pruning method      GridPruning ... 3 (G Style)
Weight generation scheme         WeightScheme... Becke
Basis function cutoff            BFCut       ...    1.0000e-11
Integration weight cutoff        WCut        ...    1.0000e-14
Grids for H and He will be reduced by one unit

# of grid points (after initial pruning)     ... 108130 (   0.0 sec)
# of grid points (after weights+screening)   ... 100858 (   2.3 sec)
nearest neighbour list constructed           ...    0.0 sec
Grid point re-assignment to atoms done       ...    0.0 sec
Grid point division into batches done        ...    1.0 sec
Reduced shell lists constructed in    1.2 sec

Total number of grid points                  ...   100858
Total number of batches                      ...     1582
Average number of points per batch           ...       63
Average number of grid points per atom       ...     8405
Average number of shells per batch           ...    63.12 (65.07%)
Average number of basis functions per batch  ...   161.58 (65.42%)
Average number of large shells per batch     ...    49.01 (77.65%)
Average number of large basis fcns per batch ...   124.38 (76.98%)
Maximum spatial batch extension              ...   4.51, 10.25, 13.71 au
Average spatial batch extension              ...   0.17,  0.20,  0.21 au

Final grid set up in    4.2 sec
Final integration                            ... done (   0.8 sec)
Change in XC energy                          ...     0.000392963
Integrated number of electrons               ...    48.000001775
Previous integrated no of electrons          ...    48.000664168
Total Energy       :         -302.38484774 Eh           -8228.31003 eV
  Last Energy change         ...   -1.7785e-08  Tolerance :   1.0000e-08
  Last MAX-Density change    ...    5.9350e-06  Tolerance :   1.0000e-07
             **** THE GBW FILE WAS UPDATED (2001_+.gbw) ****
             **** DENSITY FILE WAS UPDATED (2001_+.scfp.tmp) ****
             **** ENERGY FILE WAS UPDATED (2001_+.en.tmp) ****
Total SCF time: 0 days 0 hours 0 min 30 sec 
           ************************************************************
           *              Shut down parallel processing               *
           ************************************************************

-------------------------   --------------------
FINAL SINGLE POINT ENERGY      -302.384847741377
-------------------------   --------------------



           ************************************************************
           *        Program running with 8 parallel MPI-processes     *
           *              working on a common directory               *
           ************************************************************
------------------------------------------------------------------------------
                         ORCA SCF GRADIENT CALCULATION
------------------------------------------------------------------------------

Gradient of the Kohn-Sham DFT energy:
Kohn-Sham wavefunction type      ... RKS
Hartree-Fock exchange scaling    ...    0.250
Number of operators              ...    1
Number of atoms                  ...   12
Basis set dimensions             ...  247
Integral neglect threshold       ... 2.5e-11
Integral primitive cutoff        ... 2.5e-12

Nuclear repulsion gradient       ... done
One Electron Gradient            ... done
Pre-screening matrix             ... done
Starting the two electron gradient:
Two electron gradient done
Exchange-correlation gradient    ... done

------------------
CARTESIAN GRADIENT
------------------

   1   C   :    0.000011949    0.000106855   -0.000089362
   2   C   :    0.000015890   -0.000165906    0.000009095
   3   C   :   -0.000071153    0.000104668    0.000074781
   4   N   :   -0.000017890    0.000090242   -0.000010303
   5   C   :    0.000111518   -0.000069043   -0.000042925
   6   C   :   -0.000049830    0.000031394   -0.000012199
   7   N   :    0.000015478   -0.000021700    0.000016452
   8   H   :   -0.000006257   -0.000037349    0.000069512
   9   H   :    0.000031421   -0.000012078   -0.000001652
  10   H   :    0.000005549   -0.000015158    0.000012888
  11   H   :   -0.000009412   -0.000022754   -0.000037049
  12   H   :   -0.000037262    0.000010830    0.000010761

Norm of the cartesian gradient     ...    0.000335648
RMS gradient                       ...    0.000055941
MAX gradient                       ...    0.000165906

-------
TIMINGS
-------

Total SCF gradient time            ...       34.866 sec

One electron gradient       ....       0.106 sec  (  0.3%)
Prescreening matrices       ....       0.426 sec  (  1.2%)
Two electron gradient       ....      15.203 sec  ( 43.6%)
XC gradient                 ....       1.589 sec  (  4.6%)
           ************************************************************
           *              Shut down parallel processing               *
           ************************************************************
------------------------------------------------------------------------------
                         ORCA GEOMETRY RELAXATION STEP
------------------------------------------------------------------------------

Reading the OPT-File                    .... done
Getting information on internals        .... done
Copying old internal coords+grads       .... done
Making the new internal coordinates     .... (new redundants).... done
Validating the new internal coordinates .... (new redundants).... done
Calculating the B-matrix                .... done
Calculating the G,G- and P matrices     .... done
Transforming gradient to internals      .... done
Projecting the internal gradient        .... done
Number of atoms                         ....  12
Number of internal coordinates          ....  60
Current Energy                          ....  -302.384847741 Eh
Current gradient norm                   ....     0.000335648 Eh/bohr
Maximum allowed component of the step   ....  0.300
Current trust radius                    ....  0.300
Updating the Hessian (BFGS)             .... done
Forming the augmented Hessian           .... done
Diagonalizing the augmented Hessian     .... done
Last element of RFO vector              ....  0.999997580
Lowest eigenvalues of augmented Hessian:
 -0.000000301  0.033082123  0.041878913  0.048726307  0.053173854
Length of the computed step             ....  0.002199867
The final length of the internal step   ....  0.002199867
Converting the step to cartesian space:
 Initial RMS(Int)=    0.0002840016
Transforming coordinates:
 Iter   0:  RMS(Cart)=    0.0008021366 RMS(Int)=    0.0002790100
 Iter   1:  RMS(Cart)=    0.0000291347 RMS(Int)=    0.0000134032
 Iter   2:  RMS(Cart)=    0.0000144253 RMS(Int)=    0.0000066847
 Iter   3:  RMS(Cart)=    0.0000071696 RMS(Int)=    0.0000033353
 Iter   4:  RMS(Cart)=    0.0000035638 RMS(Int)=    0.0000016644
 Iter   5:  RMS(Cart)=    0.0000017717 RMS(Int)=    0.0000008308
 Iter   6:  RMS(Cart)=    0.0000008809 RMS(Int)=    0.0000004148
 Iter   7:  RMS(Cart)=    0.0000004380 RMS(Int)=    0.0000002071
 Iter   8:  RMS(Cart)=    0.0000002178 RMS(Int)=    0.0000001034
 Iter   9:  RMS(Cart)=    0.0000001084 RMS(Int)=    0.0000000517
 Iter  10:  RMS(Cart)=    0.0000000539 RMS(Int)=    0.0000000258
done
Storing new coordinates                 .... done

                                .--------------------.
          ----------------------|Geometry convergence|---------------------
          Item                value                 Tolerance   Converged
          -----------------------------------------------------------------
          Energy change      -0.00000026            0.00000100      YES
          RMS gradient        0.00002273            0.00003000      YES
          MAX gradient        0.00006988            0.00010000      YES
          RMS step            0.00028400            0.00060000      YES
          MAX step            0.00067364            0.00100000      YES
          ....................................................
          Max(Bonds)      0.0002      Max(Angles)    0.03
          Max(Dihed)        0.04      Max(Improp)    0.00
          -----------------------------------------------------------------

                    ***********************HURRAY********************
                    ***        THE OPTIMIZATION HAS CONVERGED     ***
                    *************************************************


    ---------------------------------------------------------------------------
                         Redundant Internal Coordinates

                          --- Optimized Parameters ---  
                            (Angstroem and degrees)

        Definition                    OldVal   dE/dq     Step     FinalVal
    ----------------------------------------------------------------------------
     1. B(C   1,C   0)                1.1982 -0.000015  0.0000    1.1982   
     2. B(C   2,C   1)                1.4213 -0.000000  0.0000    1.4213   
     3. B(N   3,C   2)                1.5056 -0.000043  0.0002    1.5057   
     4. B(C   4,N   3)                1.4886  0.000023 -0.0000    1.4886   
     5. B(C   4,C   2)                1.4929  0.000028 -0.0001    1.4928   
     6. B(C   5,C   4)                1.4332 -0.000032  0.0001    1.4333   
     7. B(N   6,C   5)                1.1485  0.000006 -0.0000    1.1485   
     8. B(H   7,C   0)                1.0693 -0.000003 -0.0000    1.0693   
     9. B(H   8,C   2)                1.0866 -0.000000 -0.0000    1.0865   
    10. B(H   9,N   3)                1.0179  0.000001 -0.0000    1.0179   
    11. B(H  10,N   3)                1.0175 -0.000001 -0.0000    1.0175   
    12. B(H  11,C   4)                1.0853  0.000000  0.0000    1.0854   
    13. L(C   1,C   0,H   7, 2)       180.16 -0.000037    0.01    180.18   
    14. L(C   1,C   0,H   7, 1)       180.03 -0.000070    0.02    180.05   
    15. L(C   0,C   1,C   2,N   3, 2) 180.00  0.000032   -0.01    179.99   
    16. L(C   0,C   1,C   2,N   3, 1) 181.28 -0.000049    0.01    181.30   
    17. A(C   1,C   2,N   3)          116.51 -0.000037    0.02    116.53   
    18. A(N   3,C   2,C   4)           59.53  0.000012   -0.00     59.53   
    19. A(C   1,C   2,H   8)          117.97  0.000045   -0.03    117.94   
    20. A(C   1,C   2,C   4)          120.82 -0.000042    0.03    120.85   
    21. A(N   3,C   2,H   8)          111.65  0.000000   -0.01    111.64   
    22. A(C   4,C   2,H   8)          116.27 -0.000002    0.01    116.27   
    23. A(C   2,N   3,C   4)           59.81  0.000016   -0.01     59.80   
    24. A(C   4,N   3,H  10)          117.48 -0.000031    0.03    117.51   
    25. A(H   9,N   3,H  10)          115.12  0.000014   -0.01    115.11   
    26. A(C   2,N   3,H  10)          117.15 -0.000029    0.01    117.17   
    27. A(C   4,N   3,H   9)          117.82  0.000010   -0.00    117.82   
    28. A(C   2,N   3,H   9)          118.39  0.000018   -0.02    118.37   
    29. A(C   2,C   4,N   3)           60.66 -0.000028    0.01     60.67   
    30. A(C   5,C   4,H  11)          116.81  0.000008   -0.01    116.80   
    31. A(N   3,C   4,H  11)          113.36 -0.000014    0.01    113.37   
    32. A(C   2,C   4,H  11)          117.42 -0.000022    0.02    117.44   
    33. A(N   3,C   4,C   5)          115.51  0.000016    0.01    115.52   
    34. A(C   2,C   4,C   5)          120.33  0.000023   -0.02    120.31   
    35. L(C   4,C   5,N   6,N   3, 2) 181.57 -0.000019    0.01    181.57   
    36. L(C   4,C   5,N   6,N   3, 1) 179.04 -0.000008    0.00    179.04   
    37. D(H  10,N   3,C   2,C   4)   -107.55  0.000019   -0.02   -107.57   
    38. D(C   4,N   3,C   2,C   1)    111.77 -0.000031    0.02    111.79   
    39. D(H  10,N   3,C   2,C   1)      4.22 -0.000012   -0.00      4.22   
    40. D(H  10,N   3,C   2,H   8)    143.85  0.000019   -0.03    143.82   
    41. D(H   9,N   3,C   2,C   1)   -140.81 -0.000020    0.03   -140.79   
    42. D(H   9,N   3,C   2,C   4)    107.42  0.000011    0.00    107.42   
    43. D(C   4,N   3,C   2,H   8)   -108.60 -0.000001   -0.01   -108.61   
    44. D(H   9,N   3,C   2,H   8)     -1.18  0.000010   -0.01     -1.18   
    45. D(H  11,C   4,C   2,C   1)     -1.84  0.000003   -0.01     -1.85   
    46. D(H  11,C   4,N   3,H  10)     -2.42  0.000012   -0.02     -2.44   
    47. D(C   5,C   4,C   2,N   3)   -104.10  0.000004   -0.02   -104.12   
    48. D(C   5,C   4,C   2,H   8)     -3.32  0.000009   -0.04     -3.36   
    49. D(C   5,C   4,C   2,C   1)    151.31  0.000025   -0.04    151.27   
    50. D(H  11,C   4,C   2,N   3)    102.75 -0.000018    0.01    102.76   
    51. D(C   5,C   4,N   3,H   9)      3.58 -0.000010    0.00      3.58   
    52. D(N   3,C   4,C   2,H   8)    100.78  0.000006   -0.01    100.77   
    53. D(C   5,C   4,N   3,C   2)    111.94  0.000013   -0.02    111.92   
    54. D(C   2,C   4,N   3,H  10)    107.01 -0.000016    0.00    107.01   
    55. D(N   3,C   4,C   2,C   1)   -104.60  0.000021   -0.01   -104.61   
    56. D(C   5,C   4,N   3,H  10)   -141.05 -0.000002   -0.02   -141.07   
    57. D(H  11,C   4,N   3,C   2)   -109.43  0.000027   -0.02   -109.45   
    58. D(H  11,C   4,N   3,H   9)    142.21  0.000004    0.01    142.22   
    59. D(C   2,C   4,N   3,H   9)   -108.36 -0.000023    0.03   -108.33   
    60. D(H  11,C   4,C   2,H   8)   -156.47 -0.000013   -0.00   -156.47   
    ----------------------------------------------------------------------------
                 *******************************************************
                 *** FINAL ENERGY EVALUATION AT THE STATIONARY POINT ***
                 ***               (AFTER    2 CYCLES)               ***
                 *******************************************************


           ************************************************************
           *        Program running with 8 parallel MPI-processes     *
           *              working on a common directory               *
           ************************************************************
           ************************************************************
           *              Shut down parallel processing               *
           ************************************************************


           ************************************************************
           *        Program running with 8 parallel MPI-processes     *
           *              working on a common directory               *
           ************************************************************
------------
SCF SETTINGS
------------
Hamiltonian:
 Density Functional     Method          .... DFT(GTOs)
 Exchange Functional    Exchange        .... PBE
   PBE kappa parameter  XKappa          ....  0.804000
 Correlation Functional Correlation     .... PBE
 LDA part of GGA corr.  LDAOpt          .... PW91-LDA
 Gradients option       PostSCFGGA      .... off
 Hybrid DFT is turned on
   Fraction HF Exchange ScalHFX         ....  0.250000
   Scaling of DF-GGA-X  ScalDFX         ....  0.750000
   Scaling of DF-GGA-C  ScalDFC         ....  1.000000
   Scaling of DF-LDA-C  ScalLDAC        ....  1.000000
   Perturbative correction              ....  0.000000
   NL short-range parameter             ....  6.900000


General Settings:
 Integral files         IntName         .... 2001_+
 Hartree-Fock type      HFTyp           .... RHF
 Total Charge           Charge          ....    1
 Multiplicity           Mult            ....    1
 Number of Electrons    NEL             ....   48
 Basis Dimension        Dim             ....  247
 Nuclear Repulsion      ENuc            ....    247.6501028747 Eh

Convergence Acceleration:
 DIIS                   CNVDIIS         .... on
   Start iteration      DIISMaxIt       ....    12
   Startup error        DIISStart       ....  0.200000
   # of expansion vecs  DIISMaxEq       ....     5
   Bias factor          DIISBfac        ....   1.050
   Max. coefficient     DIISMaxC        ....  10.000
 Newton-Raphson         CNVNR           .... off
 SOSCF                  CNVSOSCF        .... on
   Start iteration      SOSCFMaxIt      ....   150
   Startup grad/error   SOSCFStart      ....  0.003300
 Level Shifting         CNVShift        .... on
   Level shift para.    LevelShift      ....    0.2500
   Turn off err/grad.   ShiftErr        ....    0.0010
 Zerner damping         CNVZerner       .... off
 Static damping         CNVDamp         .... on
   Fraction old density DampFac         ....    0.7000
   Max. Damping (<1)    DampMax         ....    0.9800
   Min. Damping (>=0)   DampMin         ....    0.0000
   Turn off err/grad.   DampErr         ....    0.1000
 Fernandez-Rico         CNVRico         .... off

SCF Procedure:
 Maximum # iterations   MaxIter         ....   125
 SCF integral mode      SCFMode         .... Direct
   Integral package                     .... LIBINT
 Reset frequeny         DirectResetFreq ....    20
 Integral Threshold     Thresh          ....  2.500e-11 Eh
 Primitive CutOff       TCut            ....  2.500e-12 Eh

Convergence Tolerance:
 Convergence Check Mode ConvCheckMode   .... Total+1el-Energy
 Energy Change          TolE            ....  1.000e-08 Eh
 1-El. energy change                    ....  1.000e-05 Eh
 Orbital Gradient       TolG            ....  1.000e-05
 Orbital Rotation angle TolX            ....  1.000e-05
 DIIS Error             TolErr          ....  5.000e-07


Diagonalization of the overlap matrix:
Smallest eigenvalue                        ... 1.929e-05
Time for diagonalization                   ...    0.305 sec
Threshold for overlap eigenvalues          ... 1.000e-08
Number of eigenvalues below threshold      ... 0
Time for construction of square roots      ...    0.055 sec
Total time needed                          ...    0.360 sec

-------------------
DFT GRID GENERATION
-------------------

General Integration Accuracy     IntAcc      ...  4.340
Radial Grid Type                 RadialGrid  ... Gauss-Chebyshev
Angular Grid (max. acc.)         AngularGrid ... Lebedev-194
Angular grid pruning method      GridPruning ... 3 (G Style)
Weight generation scheme         WeightScheme... Becke
Basis function cutoff            BFCut       ...    1.0000e-11
Integration weight cutoff        WCut        ...    1.0000e-14
Grids for H and He will be reduced by one unit

# of grid points (after initial pruning)     ...  30688 (   0.0 sec)
# of grid points (after weights+screening)   ...  28844 (   0.1 sec)
nearest neighbour list constructed           ...    0.0 sec
Grid point re-assignment to atoms done       ...    0.0 sec
Grid point division into batches done        ...    0.1 sec
Reduced shell lists constructed in    0.1 sec

Total number of grid points                  ...    28844
Total number of batches                      ...      456
Average number of points per batch           ...       63
Average number of grid points per atom       ...     2404
Average number of shells per batch           ...    64.67 (66.67%)
Average number of basis functions per batch  ...   165.74 (67.10%)
Average number of large shells per batch     ...    50.53 (78.14%)
Average number of large basis fcns per batch ...   128.74 (77.68%)
Maximum spatial batch extension              ...   5.49, 14.71, 16.10 au
Average spatial batch extension              ...   0.23,  0.32,  0.33 au

Time for grid setup =    0.578 sec

--------------
SCF ITERATIONS
--------------
ITER       Energy         Delta-E        Max-DP      RMS-DP      [F,P]     Damp
               ***  Starting incremental Fock matrix formation  ***
                      *** Initiating the SOSCF procedure ***
                      *** Re-Reading the Fockian *** 
                      *** Removing any level shift *** 
ITER      Energy       Delta-E        Grad      Rot      Max-DP    RMS-DP
  0   -302.38523978 -302.3852397828  0.000292  0.000292  0.000285  0.000008
               *** Restarting incremental Fock matrix formation ***
  1   -302.38524072  -0.0000009332  0.000028  0.000062  0.000075  0.000002
  2   -302.38524079  -0.0000000701  0.000017  0.000050  0.000087  0.000002
  3   -302.38524076   0.0000000234  0.000035  0.000033  0.000057  0.000001
                  ***Gradient check signals convergence***
              ***Rediagonalizing the Fockian in SOSCF/NRSCF***

               *****************************************************
               *                     SUCCESS                       *
               *           SCF CONVERGED AFTER   4 CYCLES          *
               *****************************************************

Setting up the final grid:

General Integration Accuracy     IntAcc      ...  5.010
Radial Grid Type                 RadialGrid  ... Gauss-Chebyshev
Angular Grid (max. acc.)         AngularGrid ... Lebedev-434
Angular grid pruning method      GridPruning ... 3 (G Style)
Weight generation scheme         WeightScheme... Becke
Basis function cutoff            BFCut       ...    1.0000e-11
Integration weight cutoff        WCut        ...    1.0000e-14
Grids for H and He will be reduced by one unit

# of grid points (after initial pruning)     ... 108130 (   0.0 sec)
# of grid points (after weights+screening)   ... 100856 (   0.1 sec)
nearest neighbour list constructed           ...    0.0 sec
Grid point re-assignment to atoms done       ...    0.0 sec
Grid point division into batches done        ...    0.7 sec
Reduced shell lists constructed in    0.9 sec

Total number of grid points                  ...   100856
Total number of batches                      ...     1581
Average number of points per batch           ...       63
Average number of grid points per atom       ...     8405
Average number of shells per batch           ...    63.13 (65.08%)
Average number of basis functions per batch  ...   161.64 (65.44%)
Average number of large shells per batch     ...    49.01 (77.63%)
Average number of large basis fcns per batch ...   124.37 (76.94%)
Maximum spatial batch extension              ...   4.51, 10.25, 13.71 au
Average spatial batch extension              ...   0.17,  0.20,  0.21 au

Final grid set up in    1.6 sec
Final integration                            ... done (   0.6 sec)
Change in XC energy                          ...     0.000392842
Integrated number of electrons               ...    48.000001713
Previous integrated no of electrons          ...    48.000663335
Total Energy       :         -302.38484795 Eh           -8228.31003 eV
  Last Energy change         ...   -3.0984e-08  Tolerance :   1.0000e-08
  Last MAX-Density change    ...    7.0314e-06  Tolerance :   1.0000e-07
             **** THE GBW FILE WAS UPDATED (2001_+.gbw) ****
             **** DENSITY FILE WAS UPDATED (2001_+.scfp.tmp) ****
             **** ENERGY FILE WAS UPDATED (2001_+.en.tmp) ****
Total SCF time: 0 days 0 hours 0 min 30 sec 
           ************************************************************
           *              Shut down parallel processing               *
           ************************************************************

-------------------------   --------------------
FINAL SINGLE POINT ENERGY      -302.384847951931
-------------------------   --------------------

                                *** OPTIMIZATION RUN DONE ***

                            ***************************************
                            *     ORCA property calculations      *
                            ***************************************

                                    ---------------------
                                    Active property flags
                                    ---------------------




           ************************************************************
           *        Program running with 8 parallel MPI-processes     *
           *              working on a common directory               *
           ************************************************************

-------------------------------------------------------------------------------
                               ORCA SCF HESSIAN
-------------------------------------------------------------------------------

Hessian of the Kohn-Sham DFT energy:
Kohn-Sham wavefunction type                      ... RKS
Hartree-Fock exchange scaling                    ...    0.250
Number of operators                              ...    1
Number of atoms                                  ...   12
Basis set dimensions                             ...  247
Integral neglect threshold                       ... 2.5e-11
Integral primitive cutoff                        ... 2.5e-12

Setting up DFT Hessian calculations              ... 
Electron density on the grid                     ... found on disk
Electron density on the final grid               ... found on disk
Building xc-kernel on the grid                   ... done   (      0.0 sec)
Building xc-kernel on the final grid             ... done   (      0.1 sec)
                                                     done   (      0.6 sec)

Nuclear repulsion Hessian                        ... done   (      0.0 sec)

----------------------------------------------
Forming right-hand sides of CP-SCF equations     ...
----------------------------------------------
One electron integral derivatives                ... done   (      0.2 sec)
Transforming the overlap derivative matrices     ... done   (      0.2 sec)
Making the Q(x) pseudodensities                  ... done   (      0.1 sec)
Adding the E*S(x)*S(y) terms to the Hessian      ... done   (      0.0 sec)
Calculating energy weighted overlap derivatives  ... done   (      0.0 sec)
Two electron integral derivatives                ... done   (     26.5 sec)
Exchange-correlation integral derivatives        ... done   (     28.6 sec)
tr(F(y)Q(x)) contribution to the Hessian         ... done   (      0.0 sec)
Response fock operator R(S(x))                   ... done   (     66.4 sec)
XC Response fock operator R(S(x))                ... done   (     14.6 sec)
tr(F(y)S(x)) contribution to the Hessian         ... done   (      0.0 sec)
Transforming and finalizing RHSs                 ... done   (      0.0 sec)

----------------------------------------------
Solving the CP-SCF equations                     ...
----------------------------------------------
     CP-SCF ITERATION   0: 
     CP-SCF ITERATION   1:      0.010015866
     CP-SCF ITERATION   2:      0.000478921
     CP-SCF ITERATION   3:      0.000132479
     CP-SCF ITERATION   4:      0.000011399
     CP-SCF ITERATION   5:      0.000001083
     CP-SCF ITERATION   6:      0.000000075
     CP-SCF ITERATION   7:      0.000000007

                                                 ... done   (    599.2 sec)
Forming perturbed density Hessian contributions  ... done   (      0.1 sec)
Making the perturbed densities                   ... done   (      0.0 sec)
2nd integral derivative contribs                 ... done   (    136.5 sec)
Exchange-correlation Hessian                     ... done   (     11.7 sec)
Dipol derivatives                                ... done   (      7.5 sec)

Total SCF Hessian time: 0 days 0 hours 14 min 53 sec 

Writing the Hessian file to the disk             ... done

           ************************************************************
           *              Shut down parallel processing               *
           ************************************************************

-----------------------
VIBRATIONAL FREQUENCIES
-----------------------

   0:         0.00 cm**-1
   1:         0.00 cm**-1
   2:         0.00 cm**-1
   3:         0.00 cm**-1
   4:         0.00 cm**-1
   5:         0.00 cm**-1
   6:       114.27 cm**-1
   7:       135.25 cm**-1
   8:       216.33 cm**-1
   9:       232.98 cm**-1
  10:       462.46 cm**-1
  11:       484.69 cm**-1
  12:       505.95 cm**-1
  13:       554.97 cm**-1
  14:       752.09 cm**-1
  15:       760.29 cm**-1
  16:       786.55 cm**-1
  17:       852.63 cm**-1
  18:       882.56 cm**-1
  19:       954.52 cm**-1
  20:      1028.10 cm**-1
  21:      1077.70 cm**-1
  22:      1111.69 cm**-1
  23:      1137.60 cm**-1
  24:      1180.02 cm**-1
  25:      1229.66 cm**-1
  26:      1343.44 cm**-1
  27:      1446.87 cm**-1
  28:      1610.79 cm**-1
  29:      2260.58 cm**-1
  30:      2401.79 cm**-1
  31:      3180.71 cm**-1
  32:      3196.72 cm**-1
  33:      3442.63 cm**-1
  34:      3472.07 cm**-1
  35:      3583.73 cm**-1


------------
NORMAL MODES
------------

These modes are the cartesian displacements weighted by the diagonal matrix
M(i,i)=1/sqrt(m[i]) where m[i] is the mass of the displaced atom
Thus, these vectors are normalized but *not* orthogonal

                  0          1          2          3          4          5    
      0       0.000000   0.000000   0.000000   0.000000   0.000000   0.000000
      1       0.000000   0.000000   0.000000   0.000000   0.000000   0.000000
      2       0.000000   0.000000   0.000000   0.000000   0.000000   0.000000
      3       0.000000   0.000000   0.000000   0.000000   0.000000   0.000000
      4       0.000000   0.000000   0.000000   0.000000   0.000000   0.000000
      5       0.000000   0.000000   0.000000   0.000000   0.000000   0.000000
      6       0.000000   0.000000   0.000000   0.000000   0.000000   0.000000
      7       0.000000   0.000000   0.000000   0.000000   0.000000   0.000000
      8       0.000000   0.000000   0.000000   0.000000   0.000000   0.000000
      9       0.000000   0.000000   0.000000   0.000000   0.000000   0.000000
     10       0.000000   0.000000   0.000000   0.000000   0.000000   0.000000
     11       0.000000   0.000000   0.000000   0.000000   0.000000   0.000000
     12       0.000000   0.000000   0.000000   0.000000   0.000000   0.000000
     13       0.000000   0.000000   0.000000   0.000000   0.000000   0.000000
     14       0.000000   0.000000   0.000000   0.000000   0.000000   0.000000
     15       0.000000   0.000000   0.000000   0.000000   0.000000   0.000000
     16       0.000000   0.000000   0.000000   0.000000   0.000000   0.000000
     17       0.000000   0.000000   0.000000   0.000000   0.000000   0.000000
     18       0.000000   0.000000   0.000000   0.000000   0.000000   0.000000
     19       0.000000   0.000000   0.000000   0.000000   0.000000   0.000000
     20       0.000000   0.000000   0.000000   0.000000   0.000000   0.000000
     21       0.000000   0.000000   0.000000   0.000000   0.000000   0.000000
     22       0.000000   0.000000   0.000000   0.000000   0.000000   0.000000
     23       0.000000   0.000000   0.000000   0.000000   0.000000   0.000000
     24       0.000000   0.000000   0.000000   0.000000   0.000000   0.000000
     25       0.000000   0.000000   0.000000   0.000000   0.000000   0.000000
     26       0.000000   0.000000   0.000000   0.000000   0.000000   0.000000
     27       0.000000   0.000000   0.000000   0.000000   0.000000   0.000000
     28       0.000000   0.000000   0.000000   0.000000   0.000000   0.000000
     29       0.000000   0.000000   0.000000   0.000000   0.000000   0.000000
     30       0.000000   0.000000   0.000000   0.000000   0.000000   0.000000
     31       0.000000   0.000000   0.000000   0.000000   0.000000   0.000000
     32       0.000000   0.000000   0.000000   0.000000   0.000000   0.000000
     33       0.000000   0.000000   0.000000   0.000000   0.000000   0.000000
     34       0.000000   0.000000   0.000000   0.000000   0.000000   0.000000
     35       0.000000   0.000000   0.000000   0.000000   0.000000   0.000000
                  6          7          8          9         10         11    
      0      -0.127291  -0.074969  -0.192222  -0.000153   0.090698   0.087717
      1      -0.002362   0.260665   0.167747   0.001914   0.086715   0.073232
      2       0.331187   0.013657  -0.066531  -0.178014   0.087522  -0.007618
      3      -0.037751   0.010355  -0.132217  -0.087775   0.259821   0.089757
      4       0.005505  -0.103688  -0.245220  -0.035469  -0.335454  -0.312789
      5      -0.050649  -0.042333   0.036837   0.224753  -0.322389   0.256613
      6      -0.001394   0.044742  -0.148375  -0.055815   0.031153   0.037208
      7       0.005760  -0.218689  -0.107641  -0.011283   0.071750   0.155724
      8      -0.195778  -0.105269   0.037352   0.065354   0.098582  -0.031472
      9      -0.007600   0.035526   0.008802   0.240408   0.050147  -0.100959
     10      -0.001320   0.021320   0.011344   0.075991   0.010869   0.044230
     11      -0.201018  -0.001120   0.025080  -0.022577   0.129770  -0.129586
     12       0.000669   0.051209   0.121770  -0.072915  -0.088689  -0.048105
     13       0.001020  -0.212218   0.142058  -0.029562   0.120932   0.072348
     14      -0.198808   0.104088   0.011118  -0.100834   0.007935  -0.128124
     15       0.046265   0.008715   0.118493  -0.090410  -0.195807   0.063062
     16      -0.003075  -0.071503   0.211512  -0.065800   0.036477  -0.158100
     17      -0.023260   0.038834  -0.000682  -0.192988  -0.204950   0.210681
     18       0.126074  -0.080498   0.207651  -0.022423  -0.122222  -0.048645
     19      -0.003971   0.258743  -0.192627   0.028242  -0.043155   0.048177
     20       0.333840  -0.010891  -0.042360   0.218290   0.101711  -0.064075
     21      -0.198563  -0.139748  -0.227257   0.062459  -0.021329   0.091510
     22      -0.008936   0.535536   0.441607   0.027802   0.342154   0.297825
     23       0.633406   0.061997  -0.145028  -0.461145   0.361007  -0.195277
     24      -0.014163   0.105018  -0.369956  -0.098074  -0.133970  -0.206700
     25       0.006790  -0.277009  -0.018556  -0.022383   0.158867   0.235231
     26      -0.213187  -0.295090   0.071667  -0.068514   0.243284  -0.071486
     27       0.012057   0.023858  -0.146940   0.414063   0.109838   0.005483
     28      -0.026870   0.122856   0.188173   0.109305   0.019758  -0.154190
     29      -0.196299  -0.096871   0.015783  -0.260733   0.051963  -0.042331
     30      -0.035626   0.030792   0.192143   0.391303   0.138495  -0.308729
     31       0.019689   0.117228  -0.167743   0.137731  -0.033521   0.175745
     32      -0.210885   0.095128   0.042678   0.213447   0.182149  -0.226786
     33       0.013953   0.127757   0.315217  -0.139921  -0.249396  -0.239000
     34       0.001260  -0.274259   0.068313  -0.030280   0.194688   0.182042
     35      -0.222588   0.294778   0.039416   0.022771  -0.083517  -0.348704
                 12         13         14         15         16         17    
      0      -0.153749   0.070485   0.042579   0.058052  -0.025582   0.082826
      1      -0.022770   0.013062  -0.127189   0.021499  -0.060503   0.015051
      2      -0.007691   0.007411  -0.049952   0.067955   0.128204   0.018181
      3      -0.101545   0.033866  -0.009613   0.067823   0.001895   0.044223
      4       0.018260  -0.016820   0.048294   0.030803   0.019017   0.037941
      5      -0.186754   0.140056   0.016515  -0.077199  -0.046234   0.042021
      6      -0.114318   0.034920  -0.003322  -0.050666   0.005059  -0.038977
      7       0.092944  -0.032363  -0.008563  -0.109885   0.008834  -0.078963
      8       0.129079   0.028297   0.019685   0.313544  -0.027621  -0.034877
      9       0.033223  -0.251134  -0.009972  -0.132484   0.012364   0.001686
     10       0.013524   0.069334   0.010369   0.123785  -0.008678  -0.012958
     11       0.059662   0.039224  -0.001418  -0.091141   0.004985  -0.084795
     12       0.043024   0.060573  -0.003885  -0.019397   0.001770   0.066995
     13       0.118605  -0.013694  -0.003303  -0.159442   0.015151   0.103035
     14       0.004382   0.055533  -0.017677  -0.201737   0.015047   0.001806
     15       0.218795   0.030106   0.003466   0.032495  -0.003290  -0.054128
     16      -0.438547  -0.080054   0.001417   0.057019  -0.004674  -0.045947
     17      -0.024971  -0.361262   0.005327   0.053428  -0.002771   0.033364
     18       0.091283   0.109855   0.002963   0.042516  -0.004835  -0.095850
     19       0.158395   0.041199   0.000515  -0.002962  -0.000088  -0.014562
     20      -0.032600   0.061111  -0.002171  -0.024247   0.001981   0.019180
     21      -0.173887   0.093764  -0.250371   0.148865   0.125762   0.099317
     22      -0.076207   0.042602   0.884726  -0.078509   0.409431  -0.015079
     23       0.101512  -0.102167   0.356165  -0.205364  -0.887307   0.005033
     24      -0.245485   0.060590  -0.001352  -0.019118   0.009125  -0.106730
     25       0.194271  -0.055729  -0.008583  -0.142032   0.009132  -0.011625
     26       0.394492  -0.051883   0.023066   0.229082  -0.021235   0.180454
     27      -0.049169  -0.525733  -0.003791  -0.026442   0.002963  -0.444943
     28       0.186144   0.085272   0.028379   0.370218  -0.027143   0.461375
     29      -0.026802   0.343379  -0.028396  -0.483012   0.036277  -0.081804
     30       0.289383  -0.430710   0.012272   0.109985  -0.003991   0.429519
     31      -0.156400  -0.027222   0.011512   0.255712  -0.021858  -0.472372
     32       0.171901  -0.260691   0.025408   0.331289  -0.028168  -0.094090
     33      -0.266538   0.025275  -0.007598  -0.015322   0.001597   0.128574
     34       0.221808  -0.033385  -0.002687  -0.177724   0.016479   0.049337
     35       0.007038   0.225743  -0.015360  -0.127323   0.009757   0.181333
                 18         19         20         21         22         23    
      0      -0.065915   0.051676   0.050488  -0.087846  -0.059157   0.024003
      1      -0.014013   0.008912   0.010368  -0.017021  -0.009678   0.004252
      2      -0.014280   0.011851   0.012785  -0.021279  -0.014390   0.005508
      3      -0.024389   0.025876   0.029655  -0.053732  -0.024339   0.010059
      4      -0.055343   0.006644   0.002394  -0.003312  -0.047532   0.021115
      5      -0.053788   0.035684   0.000304   0.016726   0.011366  -0.010801
      6      -0.040379  -0.052918  -0.074105   0.168134   0.088267  -0.050986
      7       0.224338   0.041308   0.003499  -0.033510   0.082929  -0.076895
      8       0.224110  -0.101477  -0.016828  -0.014140  -0.000265   0.074455
      9       0.071124  -0.059634  -0.073246  -0.105277   0.002533   0.014011
     10      -0.000810  -0.098593   0.061315   0.093713   0.003070  -0.008492
     11      -0.342747  -0.051118  -0.009180   0.008722   0.014959  -0.039399
     12       0.147917  -0.039855  -0.069274   0.183038  -0.068093   0.011448
     13      -0.139402  -0.042790  -0.011314  -0.000394  -0.076955   0.071545
     14       0.255933   0.170576   0.018601   0.024838  -0.009485   0.084280
     15      -0.052221   0.023651   0.026392  -0.050812   0.014417   0.002269
     16       0.028360   0.032926   0.003773  -0.012172   0.047657  -0.012262
     17      -0.036850  -0.048647   0.001869  -0.018791   0.012978  -0.005230
     18      -0.043289   0.062734   0.042854  -0.081200   0.041591   0.000569
     19      -0.020371   0.009011   0.010283  -0.018852   0.003007   0.002464
     20       0.023197  -0.006185  -0.011217   0.021761  -0.011212   0.000888
     21      -0.102072   0.060046   0.055842  -0.093437  -0.069580   0.027825
     22       0.076005   0.021148   0.012026  -0.030252   0.011101  -0.009954
     23       0.040010  -0.008442   0.017100  -0.040163  -0.025962   0.017914
     24       0.089594  -0.181978  -0.035728   0.098603   0.517041   0.112274
     25       0.154281   0.163675  -0.043445   0.065442  -0.078777  -0.290234
     26       0.113848   0.272965  -0.187167   0.340461  -0.066530  -0.649549
     27      -0.006877   0.094848   0.407398   0.344169  -0.333561  -0.010438
     28      -0.259440   0.202474  -0.487246  -0.259634   0.325106  -0.012677
     29       0.038710  -0.571402   0.021774  -0.133611   0.059939  -0.001062
     30      -0.093242   0.133604   0.451211   0.296758   0.326553  -0.026062
     31      -0.048447   0.195625  -0.506479  -0.196745  -0.356310   0.007584
     32      -0.579499   0.490650  -0.015716   0.163228  -0.000950  -0.063951
     33       0.142704  -0.250064  -0.017378   0.053162  -0.470853  -0.267999
     34      -0.151654   0.101844  -0.073674   0.172242   0.057104   0.296649
     35       0.357477  -0.197625   0.248088  -0.602828  -0.020995  -0.534249
                 24         25         26         27         28         29    
      0      -0.018551   0.029931  -0.027264  -0.048554  -0.002536  -0.351250
      1      -0.003260   0.005487  -0.006404  -0.010481  -0.000727  -0.069537
      2      -0.005122   0.007679  -0.006640  -0.011361  -0.000458  -0.083325
      3      -0.005164   0.013785  -0.010325  -0.009038  -0.001802   0.511498
      4      -0.028991   0.009513   0.019879   0.012312   0.000884   0.101094
      5       0.007377  -0.005110  -0.003578  -0.008222   0.000157   0.121193
      6       0.004262  -0.095286   0.099366   0.212361   0.027391  -0.090018
      7       0.090625   0.137837   0.013809  -0.032828  -0.015564  -0.019417
      8       0.028888  -0.028598   0.036560   0.067388   0.001015  -0.016752
      9      -0.057360   0.008916  -0.036743   0.002780   0.001030  -0.004308
     10      -0.075190   0.012072  -0.058316   0.001084  -0.001888   0.003068
     11       0.010531   0.086784   0.006738  -0.034728  -0.083405  -0.004360
     12       0.022010   0.086685   0.094917  -0.214047  -0.027053  -0.000797
     13       0.076431  -0.161017   0.008681   0.033305   0.016650   0.000828
     14      -0.024040  -0.028109  -0.046680   0.078209   0.001127  -0.003669
     15      -0.006565  -0.010988  -0.011550   0.011300   0.001804  -0.009610
     16      -0.034819  -0.002688   0.022845  -0.016539  -0.001970  -0.003133
     17      -0.012496  -0.003502   0.004148  -0.010781  -0.000557   0.002546
     18      -0.023090  -0.020137  -0.022361   0.041644   0.001646   0.007994
     19      -0.001175  -0.006416  -0.008319   0.012819   0.001085   0.001928
     20       0.006974   0.005560   0.004969  -0.008378  -0.000141  -0.001745
     21      -0.024714   0.033617  -0.031185  -0.059582  -0.002637  -0.718272
     22       0.014855   0.014757  -0.015453  -0.020712  -0.002236  -0.138118
     23      -0.007115   0.011578  -0.007015  -0.011177  -0.000200  -0.173577
     24       0.486324  -0.418449  -0.492435  -0.538832  -0.043052  -0.042743
     25      -0.152220   0.195583   0.141531   0.194410   0.009485  -0.045507
     26      -0.361859  -0.411161  -0.460997  -0.208981  -0.000710   0.004824
     27       0.073443  -0.222852   0.036559  -0.067684  -0.299424  -0.006562
     28       0.069339   0.180821  -0.006532   0.178664  -0.267147  -0.007875
     29      -0.310795   0.197009  -0.146851  -0.150585   0.578637   0.008685
     30       0.079099   0.172962   0.023994   0.078038   0.289302   0.001604
     31       0.071159  -0.174129   0.007137  -0.203002   0.286605   0.005731
     32       0.336063   0.090211   0.158033  -0.172142   0.570363   0.006518
     33       0.551543   0.303159  -0.445135   0.542449   0.044808   0.001922
     34      -0.133360  -0.166132   0.098511  -0.172988  -0.006879  -0.000848
     35       0.164723  -0.484011   0.487066  -0.231181  -0.002465   0.000163
                 30         31         32         33         34         35    
      0      -0.009030  -0.000001   0.000178  -0.111644   0.004329  -0.000072
      1      -0.001791  -0.000059   0.000040  -0.021768   0.000878  -0.000026
      2      -0.002242   0.000014   0.000065  -0.026648   0.000998  -0.000032
      3       0.015668   0.001594   0.000212   0.034619  -0.001199   0.000169
      4       0.002091   0.000506   0.000057   0.006783  -0.000288   0.000058
      5       0.002992   0.000052  -0.000206   0.008273   0.000042   0.000386
      6      -0.007133  -0.029809  -0.004609  -0.001994   0.000555   0.000469
      7       0.000979  -0.079687  -0.008970  -0.000557  -0.001430   0.000042
      8       0.004373   0.015788   0.001274  -0.000448  -0.000376   0.000193
      9      -0.004751   0.001110   0.001367  -0.000231  -0.001707  -0.064292
     10       0.003752   0.000981   0.001377   0.000060  -0.001773  -0.059628
     11       0.002495  -0.001078   0.000961  -0.002459  -0.053903   0.001882
     12      -0.110491   0.002949  -0.028199  -0.000327  -0.000888   0.000448
     13      -0.025622   0.011811  -0.079936   0.000157   0.001758   0.000031
     14       0.025621   0.002769  -0.015652  -0.000120   0.000226  -0.000091
     15       0.763916   0.000013   0.001386   0.000131   0.000234   0.000265
     16       0.177458  -0.000123   0.000505   0.000003   0.000186   0.000094
     17      -0.172619   0.000242   0.000073   0.000021   0.000366  -0.000435
     18      -0.549269  -0.000012   0.000200  -0.000055  -0.000173  -0.000077
     19      -0.129810   0.000045  -0.000177  -0.000013  -0.000080  -0.000053
     20       0.122180  -0.000028  -0.000143   0.000007  -0.000057   0.000034
     21      -0.021403   0.001341  -0.000744   0.947656  -0.036050  -0.000001
     22      -0.003570  -0.000433  -0.000146   0.183822  -0.006997   0.000017
     23      -0.004609   0.000624  -0.000026   0.226645  -0.008779  -0.000170
     24       0.003284   0.337795   0.039268  -0.001097   0.003755   0.001915
     25      -0.006611   0.911395   0.122330  -0.002480   0.004965   0.006223
     26      -0.002523  -0.176482  -0.019880   0.000914   0.003691  -0.004862
     27       0.003397  -0.002630  -0.004784   0.019278   0.453402   0.430032
     28      -0.000071  -0.009261   0.003157   0.017630   0.420105   0.396825
     29      -0.013408  -0.003150   0.004384   0.016007   0.373119   0.358720
     30      -0.004664  -0.004584  -0.004568  -0.018309  -0.427202   0.445312
     31      -0.010716   0.005001  -0.008271  -0.017106  -0.399993   0.417514
     32      -0.014495  -0.004284   0.002570   0.015537   0.362970  -0.385325
     33      -0.062151  -0.046264   0.318832   0.000347  -0.003900   0.001968
     34      -0.051811  -0.116038   0.918467   0.000761  -0.005491   0.006365
     35      -0.006892  -0.026134   0.173707   0.000454   0.003843   0.004754


-----------
IR SPECTRUM
-----------

 Mode    freq (cm**-1)   T**2         TX         TY         TZ
-------------------------------------------------------------------
   6:       114.27    5.679507  ( -0.659035  -0.011812  -2.290205)
   7:       135.25    0.765959  (  0.353009  -0.701183   0.386892)
   8:       216.33    8.687413  ( -0.772254   2.841181   0.136836)
   9:       232.98   14.896814  (  1.893892   0.353265  -3.344427)
  10:       462.46   10.964440  ( -0.811811   2.648425   1.814180)
  11:       484.69   17.036093  ( -0.785836   3.127172  -2.576694)
  12:       505.95    6.143572  ( -0.418574   0.297843   2.424801)
  13:       554.97    0.579406  ( -0.401646   0.642436  -0.073232)
  14:       752.09   34.184382  ( -1.093998   5.270489   2.282432)
  15:       760.29   13.284184  (  3.142481  -0.666916   1.721690)
  16:       786.55   31.511687  (  0.601142   2.309818  -5.080852)
  17:       852.63    0.769207  (  0.202660   0.004391   0.853298)
  18:       882.56   35.234854  (  0.306271   0.143333   5.926256)
  19:       954.52   11.702634  ( -2.375068   2.326027   0.807020)
  20:      1028.10   51.845539  (  2.844610  -6.606802   0.322326)
  21:      1077.70   46.952828  (  6.260126  -2.776408  -0.234965)
  22:      1111.69    0.530248  (  0.698304   0.065678  -0.195721)
  23:      1137.60    1.063583  ( -0.678158   0.154980  -0.761358)
  24:      1180.02   11.964767  (  3.422593   0.464084  -0.187746)
  25:      1229.66    5.443826  ( -1.828268   0.296845  -1.418853)
  26:      1343.44   32.104526  (  5.495750   1.313910   0.418211)
  27:      1446.87   11.073466  (  2.724349  -0.177376   1.902610)
  28:      1610.79   82.921993  (  0.943325  -0.047701   9.057033)
  29:      2260.58   87.452617  ( -8.931100  -0.920765  -2.615390)
  30:      2401.79   11.921967  ( -3.212697  -0.742771   1.024127)
  31:      3180.71   12.068304  ( -0.686381   3.101513  -1.406343)
  32:      3196.72   22.988007  ( -0.332033   4.691303   0.932435)
  33:      3442.63  110.532908  ( 10.021141   1.529881   2.787312)
  34:      3472.07  143.099472  (  0.438108   0.258560  11.951597)
  35:      3583.73  152.595960  (  9.083437   8.366899  -0.286593)

The first frequency considered to be a vibration is 6
The total number of vibrations considered is 30


--------------------------
THERMOCHEMISTRY AT 298.15K
--------------------------

Temperature         ... 298.15 K
Pressure            ... 1.00 atm
Total Mass          ... 93.11 AMU

Throughout the following assumptions are being made:
  (1) The electronic state is orbitally nondegenerate
  (2) There are no thermally accessible electronically excited states
  (3) Hindered rotations indicated by low frequency modes) are not
      treated as such but are treated as vibrations and this may
      case some error
  (4) All equations used are the standard statistical mechanics
      equations for an ideal gas
  (5) All vibrations are strinctly harmonic


------------
INNER ENERGY
------------

The inner energy is: U= E(el) + E(ZPE) + E(vib) + E(rot) + E(trans)
    E(el)   - is the total energy from the electronic structure calculation
              = E(kin-el) + E(nuc-el) + E(el-el) + E(nuc-nuc)
    E(ZPE)  - the the zero temperature vibrational energy from the frequency calculation
    E(vib)  - the the finite temperature correction to E(ZPE) due to population
              of excietd vibrational states
    E(rot)  - is the rotational thermal energy
    E(trans)- is the translational thermal energy

Summary of contributions to the inner energy U:
Electronic energy                ...   -302.38484795 Eh
Zero point energy                ...      0.09203712 Eh      57.75 kcal/mol
Thermal vibrational correction   ...      0.00390895 Eh       2.45 kcal/mol
Thermal rotational correction    ...      0.00141627 Eh       0.89 kcal/mol
Thermal translational correction ...      0.00141627 Eh       0.89 kcal/mol
-----------------------------------------------------------------------
Total thermal energy                   -302.28606933 Eh


Summary of corrections to the electronic energy:
(perhaps to be used in another calculation)
Total thermal correction                  0.00674149 Eh       4.23 kcal/mol
Non-thermal (ZPE) correction              0.09203712 Eh      57.75 kcal/mol
-----------------------------------------------------------------------
Total correction                          0.09877862 Eh      61.98 kcal/mol


--------
ENTHALPY
--------

The enthalpy is H = U + kB*T
                kB is Boltzmann's constant
Total free energy                 ...   -302.28606933 Eh 
Thermal Enthalpy correction       ...      0.00094421 Eh       0.59 kcal/mol
-----------------------------------------------------------------------
Total Enthalpy                    ...   -302.28512512 Eh


-------
ENTROPY
-------

The entropy contributions are T*S = T*(S(el)+S(vib)+S(rot)+S(trans)
     S(el)   - electronic entropy
     S(vib)  - vibrational entropy
     S(rot)  - rotational entropy
     S(trans)- translational entropy
The entropies will be listed as mutliplied by the temperature to get
units of energy

Electronic entropy                ...      0.00000000 Eh      0.00 kcal/mol
Vibrational entropy               ...      0.00668878 Eh      4.20 kcal/mol
Rotational entropy                ...      0.01194520 Eh      7.50 kcal/mol
Translational entropy             ...      0.01877012 Eh     11.78 kcal/mol
-----------------------------------------------------------------------
Final entropy term                ...      0.03740410 Eh     23.47 kcal/mol


CAUTION: The rotational entropy is not quite correctly treated here
         because it includes a symmetry number that is not yet correctly
         implemented in ORCA!
For a nonlinear molecule the correct rotational entropy is:
    S(rot) = R*(ln(qrot/sn)+1.5)
    R    = 8.31441 J/mol/K = 1.987191683e-3 kcal/mol/K
    qrot = 208981.2948582
    sn is the rotational symmetry number. We have assumed 3 here
       if it is different for your molecule then you should correct
       the printed rotational entropy by manually evaluating the equation
       as given above

For convenience we print out the resulting values for sn=1 - 12:
 sn= 1  qrot/sn=  208981.2949 T*S(rot)=     8.15 kcal/mol T*S(tot)=    24.12 kcal/mol
 sn= 2  qrot/sn=  104490.6474 T*S(rot)=     7.74 kcal/mol T*S(tot)=    23.71 kcal/mol
 sn= 3  qrot/sn=   69660.4316 T*S(rot)=     7.50 kcal/mol T*S(tot)=    23.47 kcal/mol
 sn= 4  qrot/sn=   52245.3237 T*S(rot)=     7.33 kcal/mol T*S(tot)=    23.30 kcal/mol
 sn= 5  qrot/sn=   41796.2590 T*S(rot)=     7.19 kcal/mol T*S(tot)=    23.17 kcal/mol
 sn= 6  qrot/sn=   34830.2158 T*S(rot)=     7.09 kcal/mol T*S(tot)=    23.06 kcal/mol
 sn= 7  qrot/sn=   29854.4707 T*S(rot)=     6.99 kcal/mol T*S(tot)=    22.97 kcal/mol
 sn= 8  qrot/sn=   26122.6619 T*S(rot)=     6.91 kcal/mol T*S(tot)=    22.89 kcal/mol
 sn= 9  qrot/sn=   23220.1439 T*S(rot)=     6.84 kcal/mol T*S(tot)=    22.82 kcal/mol
 sn=10  qrot/sn=   20898.1295 T*S(rot)=     6.78 kcal/mol T*S(tot)=    22.76 kcal/mol
 sn=11  qrot/sn=   18998.2995 T*S(rot)=     6.73 kcal/mol T*S(tot)=    22.70 kcal/mol
 sn=12  qrot/sn=   17415.1079 T*S(rot)=     6.67 kcal/mol T*S(tot)=    22.65 kcal/mol


-------------------
GIBBS FREE ENTHALPY
-------------------

The Gibbs free enthalpy is G = H - T*S

Total enthalpy                    ...   -302.28512512 Eh 
Total entropy correction          ...     -0.03740410 Eh    -23.47 kcal/mol
-----------------------------------------------------------------------
Final Gibbs free enthalpy         ...   -302.32252922 Eh

For completeness - the Gibbs free enthalpy minus the electronic energy
G-E(el)                           ...      0.06231873 Eh     39.11 kcal/mol


Timings for individual modules:

Sum of individual times         ...     1106.537 sec (=  18.442 min)
GTO integral calculation        ...        7.336 sec (=   0.122 min)   0.7 %
SCF iterations                  ...      143.373 sec (=   2.390 min)  13.0 %
SCF Gradient evaluation         ...       60.670 sec (=   1.011 min)   5.5 %
Geometry relaxation             ...        0.097 sec (=   0.002 min)   0.0 %
Analytical frequency calculation...      895.060 sec (=  14.918 min)  80.9 %
                             ****ORCA TERMINATED NORMALLY****
TOTAL RUN TIME: 0 days 0 hours 18 minutes 28 seconds 112 msec
