
                                 *****************
                                 * O   R   C   A *
                                 *****************

           --- An Ab Initio, DFT and Semiempirical electronic structure package ---

                  #######################################################
                  #                        -***-                        #
                  #  Department of molecular theory and spectroscopy    #
                  #              Directorship: Frank Neese              #
                  # Max Planck Institute for Chemical Energy Conversion #
                  #                  D-45470 Muelheim/Ruhr              #
                  #                       Germany                       #
                  #                                                     #
                  #                  All rights reserved                #
                  #                        -***-                        #
                  #######################################################


                         Program Version 3.0.3 - RELEASE   -


 With contributions from (in alphabetic order):
   Ute Becker             : Parallelization
   Dmytro Bykov           : SCF Hessian
   Dmitry Ganyushin       : Spin-Orbit,Spin-Spin,Magnetic field MRCI
   Andreas Hansen         : Spin unrestricted coupled pair/coupled cluster methods
   Dimitrios Liakos       : Extrapolation schemes; parallel MDCI
   Robert Izsak           : Overlap fitted RIJCOSX, COSX-SCS-MP3
   Christian Kollmar      : KDIIS, OOCD, Brueckner-CCSD(T), CCSD density
   Simone Kossmann        : Meta GGA functionals, TD-DFT gradient, OOMP2, MP2 Hessian
   Taras Petrenko         : DFT Hessian,TD-DFT gradient, ASA and ECA modules, normal mode analysis, Resonance Raman, ABS, FL, XAS/XES, NRVS
   Christoph Reimann      : Effective Core Potentials
   Michael Roemelt        : Restricted open shell CIS
   Christoph Riplinger    : Improved optimizer, TS searches, QM/MM, DLPNO-CCSD
   Barbara Sandhoefer     : DKH picture change effects
   Igor Schapiro          : Molecular dynamics
   Kantharuban Sivalingam : CASSCF convergence, NEVPT2
   Boris Wezisla          : Elementary symmetry handling
   Frank Wennmohs         : Technical directorship


 We gratefully acknowledge several colleagues who have allowed us to
 interface, adapt or use parts of their codes:
   Stefan Grimme, W. Hujo, H. Kruse, T. Risthaus : VdW corrections, initial TS optimization,
                                                   DFT functionals, gCP
   Ed Valeev                                     : LibInt (2-el integral package), F12 methods
   Garnet Chan, S. Sharma, R. Olivares           : DMRG
   Ulf Ekstrom                                   : XCFun DFT Library
   Mihaly Kallay                                 : mrcc  (arbitrary order and MRCC methods)
   Andreas Klamt, Michael Diedenhofen            : otool_cosmo (COSMO solvation model)
   Frank Weinhold                                : gennbo (NPA and NBO analysis)
   Christopher J. Cramer and Donald G. Truhlar   : smd solvation model


 Your calculation uses the libint2 library for the computation of 2-el integrals
 For citations please refer to: http://libint.valeyev.net

 This ORCA versions uses:
   CBLAS   interface :  Fast vector & matrix operations
   LAPACKE interface :  Fast linear algebra routines
   SCALAPACK package :  Parallel linear algebra routines


Your calculation utilizes the basis: Ahlrichs-TZV
Cite in your paper:
H - Kr: A. Schaefer, H. Horn and R. Ahlrichs, J. Chem. Phys. 97, 2571 (1992).

The def2-TZV basis will be loaded
Cite in your paper:
 	F. Weigend, R. Ahlrichs, Phys. Chem. Chem. Phys. 2005, 7, 3297.

================================================================================
                                        WARNINGS
                       Please study these warnings very carefully!
================================================================================
Now building the actual basis set
WARNING: Geometry optimizations can change the point-group symmetry!

WARNING: Geometry Optimization
  ===> : Switching off AutoStart
         For restart on a previous wavefunction, please use MOREAD


INFO   : the flag for use of LIBINT has been found!

================================================================================
                                       INPUT FILE
================================================================================
NAME = 2056_+.inp
|  1> ! NORI PBE0 def2-TZVP UseSym TightOPT Freq TightSCF Grid3 FinalGrid5 XYZFile
|  2> % pal
|  3>     nprocs 8
|  4> end
|  5> %method
|  6>     SymThresh 5.0e-2
|  7> end
|  8> % geom 
|  9>     MaxIter 10
| 10> end 
| 11> % maxcore 2000
| 12> % output
| 13>     printlevel mini
| 14>     print[ P_Basis ] 0
| 15>     print[ P_SCFInfo ] 1
| 16>     print[ P_SCFIterInfo ] 1
| 17>     print[ P_OrbEn ] 0
| 18>     print[ P_Cartesian ] 0
| 19> end
| 20> % elprop
| 21>     Dipole false
| 22> end
| 23> *xyz 1 1
| 24>  C        1.3788991390    -0.4067626388    -0.7831541214 
| 25>  C        2.4152608995    -0.0248448007    -0.0534694515 
| 26>  C        3.1419967053    -0.9127885485     0.9058614952 
| 27>  C        4.6125964185    -1.0817200456     0.5230685911 
| 28>  C        5.3752753161    -1.9563206783     1.4672115296 
| 29>  C        6.8161063151    -1.7976376800     1.7117259375 
| 30>  N        5.8569651119    -1.3221495652     2.7394414519 
| 31>  H        0.8834311168     0.2777563617    -1.4608767991 
| 32>  H        0.9787334303    -1.4141659289    -0.7245926878 
| 33>  H        2.7806418148     0.9970566169    -0.1354557932 
| 34>  H        2.6556871708    -1.8922908863     0.9416992914 
| 35>  H        3.0747892910    -0.4885306504     1.9170734569 
| 36>  H        5.1086433625    -0.1072040219     0.4367722139 
| 37>  H        4.6863861332    -1.5447634375    -0.4661515386 
| 38>  H        4.9590295102    -2.9396974115     1.6630304989 
| 39>  H        7.3497055217    -0.9978062741     1.2133732398 
| 40>  H        7.4126155547    -2.6446215377     2.0255178322 
| 41>  H        5.7863451294    -1.8380442956     3.6092412634 
| 42>  H        5.7293620591    -0.3208045776     2.8412935899 
| 43> *
| 44> 
| 45>                          ****END OF INPUT****
================================================================================

The point group is C1 - hence turning off symmetry
If this is a round-off problem, please increase the symmetry
        detection tolerance (%method SymThresh)


                       *****************************
                       * Geometry Optimization Run *
                       *****************************

Geometry optimization settings:
Update method            Update   .... BFGS
Choice of coordinates    CoordSys .... Redundant Internals
Initial Hessian          InHess   .... Almoef's Model

Convergence Tolerances:
Energy Change            TolE     ....  1.0000e-06 Eh
Max. Gradient            TolMAXG  ....  1.0000e-04 Eh/bohr
RMS Gradient             TolRMSG  ....  3.0000e-05 Eh/bohr
Max. Displacement        TolMAXD  ....  1.0000e-03 bohr
RMS Displacement         TolRMSD  ....  6.0000e-04 bohr

------------------------------------------------------------------------------
                        ORCA OPTIMIZATION COORDINATE SETUP
------------------------------------------------------------------------------

The optimization will be done in new redundant internal coordinates
Making redundant internal coordinates   ...  (new redundants) done
Evaluating the initial hessian          ...  (Almloef) done
Evaluating the coordinates              ...  done
Calculating the B-matrix                .... done
Calculating the G-matrix                .... done
Diagonalizing the G-matrix              .... done
Small eigenvalue found = 2.029e-02
The first mode is                       ....   56
The number of degrees of freedom        ....   51

    -----------------------------------------------------------------
                    Redundant Internal Coordinates


    -----------------------------------------------------------------
         Definition                    Initial Value    Approx d2E/dq
    -----------------------------------------------------------------
      1. B(C   1,C   0)                  1.3238         0.796923   
      2. B(C   2,C   1)                  1.4956         0.423853   
      3. B(C   3,C   2)                  1.5290         0.374999   
      4. B(C   4,C   3)                  1.4960         0.423277   
      5. B(C   5,C   4)                  1.4700         0.465661   
      6. B(N   6,C   5)                  1.4840         0.396199   
      7. B(N   6,C   4)                  1.5009         0.372311   
      8. B(H   7,C   0)                  1.0832         0.369183   
      9. B(H   8,C   0)                  1.0856         0.366032   
     10. B(H   9,C   1)                  1.0884         0.362288   
     11. B(H  10,C   2)                  1.0942         0.354627   
     12. B(H  11,C   2)                  1.0987         0.348820   
     13. B(H  12,C   3)                  1.0969         0.351086   
     14. B(H  13,C   3)                  1.0947         0.353911   
     15. B(H  14,C   4)                  1.0856         0.365901   
     16. B(H  15,C   5)                  1.0830         0.369527   
     17. B(H  16,C   5)                  1.0824         0.370245   
     18. B(H  17,N   6)                  1.0137         0.426790   
     19. B(H  18,N   6)                  1.0146         0.425507   
     20. A(C   1,C   0,H   8)          121.7760         0.369373   
     21. A(H   7,C   0,H   8)          116.8449         0.292733   
     22. A(C   1,C   0,H   7)          121.3761         0.369918   
     23. A(C   2,C   1,H   9)          116.2721         0.331473   
     24. A(C   0,C   1,C   2)          124.2421         0.424114   
     25. A(C   0,C   1,H   9)          119.4855         0.368722   
     26. A(C   3,C   2,H  10)          109.6809         0.323707   
     27. A(C   1,C   2,H  10)          109.6650         0.330303   
     28. A(C   3,C   2,H  11)          109.3863         0.322831   
     29. A(H  10,C   2,H  11)          106.7595         0.288697   
     30. A(C   1,C   2,H  11)          109.3528         0.329403   
     31. A(C   1,C   2,C   3)          111.8616         0.371549   
     32. A(H  12,C   3,H  13)          105.9151         0.288899   
     33. A(C   2,C   3,H  13)          109.7429         0.323599   
     34. A(C   4,C   3,H  13)          106.7767         0.330119   
     35. A(C   4,C   3,H  12)          109.7855         0.329682   
     36. A(C   2,C   3,C   4)          113.3870         0.371462   
     37. A(C   2,C   3,H  12)          110.8854         0.323174   
     38. A(C   5,C   4,N   6)           59.9235         0.374789   
     39. A(C   5,C   4,H  14)          116.3318         0.337248   
     40. A(C   3,C   4,H  14)          116.6103         0.331944   
     41. A(N   6,C   4,H  14)          110.6634         0.323049   
     42. A(C   3,C   4,N   6)          116.8430         0.368682   
     43. A(C   3,C   4,C   5)          122.7897         0.385650   
     44. A(N   6,C   5,H  16)          113.9619         0.327001   
     45. A(C   4,C   5,H  16)          120.2577         0.337912   
     46. A(N   6,C   5,H  15)          113.6095         0.326897   
     47. A(C   4,C   5,N   6)           61.0719         0.378839   
     48. A(C   4,C   5,H  15)          119.0858         0.337803   
     49. A(H  15,C   5,H  16)          116.0897         0.293304   
     50. A(H  17,N   6,H  18)          114.0397         0.301781   
     51. A(C   5,N   6,H  18)          117.8428         0.331752   
     52. A(C   4,N   6,H  18)          117.4997         0.328359   
     53. A(C   5,N   6,H  17)          118.4351         0.331918   
     54. A(C   4,N   6,H  17)          119.3337         0.328523   
     55. A(C   4,N   6,C   5)           59.0046         0.362261   
     56. D(C   2,C   1,C   0,H   7)    179.6837         0.045855   
     57. D(H   9,C   1,C   0,H   8)   -179.4760         0.045855   
     58. D(C   2,C   1,C   0,H   8)      0.3290         0.045855   
     59. D(H   9,C   1,C   0,H   7)     -0.1213         0.045855   
     60. D(H  10,C   2,C   1,C   0)     -2.7795         0.013277   
     61. D(H  11,C   2,C   1,H   9)     60.2831         0.013277   
     62. D(H  10,C   2,C   1,H   9)    177.0312         0.013277   
     63. D(H  11,C   2,C   1,C   0)   -119.5276         0.013277   
     64. D(C   3,C   2,C   1,C   0)    119.1404         0.013277   
     65. D(C   3,C   2,C   1,H   9)    -61.0489         0.013277   
     66. D(H  12,C   3,C   2,H  10)    177.4276         0.011224   
     67. D(H  12,C   3,C   2,C   1)     55.5168         0.011224   
     68. D(C   4,C   3,C   2,C   1)    179.5554         0.011224   
     69. D(C   4,C   3,C   2,H  10)    -58.5338         0.011224   
     70. D(H  13,C   3,C   2,H  10)     60.7628         0.011224   
     71. D(H  13,C   3,C   2,C   1)    -61.1480         0.011224   
     72. D(H  12,C   3,C   2,H  11)    -65.7958         0.011224   
     73. D(H  13,C   3,C   2,H  11)    177.5394         0.011224   
     74. D(C   4,C   3,C   2,H  11)     58.2428         0.011224   
     75. D(H  14,C   4,C   3,H  13)    -67.7891         0.014171   
     76. D(H  14,C   4,C   3,H  12)    177.8287         0.014171   
     77. D(H  14,C   4,C   3,C   2)     53.1933         0.014171   
     78. D(N   6,C   4,C   3,H  12)     43.7307         0.014171   
     79. D(N   6,C   4,C   3,C   2)    -80.9047         0.014171   
     80. D(C   5,C   4,C   3,H  13)     88.1190         0.014171   
     81. D(C   5,C   4,C   3,H  12)    -26.2632         0.014171   
     82. D(N   6,C   4,C   3,H  13)    158.1129         0.014171   
     83. D(C   5,C   4,C   3,C   2)   -150.8986         0.014171   
     84. D(H  15,C   5,C   4,C   3)      1.8514         0.017132   
     85. D(N   6,C   5,C   4,H  14)    -99.6928         0.017132   
     86. D(N   6,C   5,C   4,C   3)    104.3372         0.017132   
     87. D(H  16,C   5,C   4,H  14)      2.7113         0.017132   
     88. D(H  16,C   5,C   4,N   6)    102.4042         0.017132   
     89. D(H  16,C   5,C   4,C   3)   -153.2586         0.017132   
     90. D(H  15,C   5,C   4,H  14)    157.8213         0.017132   
     91. D(H  15,C   5,C   4,N   6)   -102.4858         0.017132   
     92. D(H  18,N   6,C   5,H  16)    140.4236         0.014350   
     93. D(H  18,N   6,C   5,H  15)      4.4126         0.014350   
     94. D(H  18,N   6,C   5,C   4)   -106.9700         0.014350   
     95. D(H  17,N   6,C   5,H  16)     -3.6648         0.014350   
     96. D(H  17,N   6,C   5,H  15)   -139.6758         0.014350   
     97. D(C   4,N   6,C   5,H  16)   -112.6065         0.014350   
     98. D(C   4,N   6,C   5,H  15)    111.3825         0.014350   
     99. D(H  18,N   6,C   4,H  14)   -143.2178         0.012710   
    100. D(H  18,N   6,C   4,C   5)    107.5489         0.012710   
    101. D(H  17,N   6,C   5,C   4)    108.9417         0.014350   
    102. D(H  18,N   6,C   4,C   3)     -6.5497         0.012710   
    103. D(H  17,N   6,C   4,H  14)      1.8003         0.012710   
    104. D(H  17,N   6,C   4,C   5)   -107.4330         0.012710   
    105. D(H  17,N   6,C   4,C   3)    138.4684         0.012710   
    106. D(C   5,N   6,C   4,H  14)    109.2332         0.012710   
    107. D(C   5,N   6,C   4,C   3)   -114.0987         0.012710   
    -----------------------------------------------------------------

Number of atoms                         .... 19
Number of degrees of freedom            .... 107

         *************************************************************
         *                GEOMETRY OPTIMIZATION CYCLE   1            *
         *************************************************************


           ************************************************************
           *        Program running with 8 parallel MPI-processes     *
           *              working on a common directory               *
           ************************************************************
           ************************************************************
           *              Shut down parallel processing               *
           ************************************************************


           ************************************************************
           *        Program running with 8 parallel MPI-processes     *
           *              working on a common directory               *
           ************************************************************
------------
SCF SETTINGS
------------
Hamiltonian:
 Density Functional     Method          .... DFT(GTOs)
 Exchange Functional    Exchange        .... PBE
   PBE kappa parameter  XKappa          ....  0.804000
 Correlation Functional Correlation     .... PBE
 LDA part of GGA corr.  LDAOpt          .... PW91-LDA
 Gradients option       PostSCFGGA      .... off
 Hybrid DFT is turned on
   Fraction HF Exchange ScalHFX         ....  0.250000
   Scaling of DF-GGA-X  ScalDFX         ....  0.750000
   Scaling of DF-GGA-C  ScalDFC         ....  1.000000
   Scaling of DF-LDA-C  ScalLDAC        ....  1.000000
   Perturbative correction              ....  0.000000
   NL short-range parameter             ....  6.900000


General Settings:
 Integral files         IntName         .... 2056_+
 Hartree-Fock type      HFTyp           .... RHF
 Total Charge           Charge          ....    1
 Multiplicity           Mult            ....    1
 Number of Electrons    NEL             ....   54
 Basis Dimension        Dim             ....  289
 Nuclear Repulsion      ENuc            ....    298.3214589112 Eh

Convergence Acceleration:
 DIIS                   CNVDIIS         .... on
   Start iteration      DIISMaxIt       ....    12
   Startup error        DIISStart       ....  0.200000
   # of expansion vecs  DIISMaxEq       ....     5
   Bias factor          DIISBfac        ....   1.050
   Max. coefficient     DIISMaxC        ....  10.000
 Newton-Raphson         CNVNR           .... off
 SOSCF                  CNVSOSCF        .... on
   Start iteration      SOSCFMaxIt      ....   150
   Startup grad/error   SOSCFStart      ....  0.003300
 Level Shifting         CNVShift        .... on
   Level shift para.    LevelShift      ....    0.2500
   Turn off err/grad.   ShiftErr        ....    0.0010
 Zerner damping         CNVZerner       .... off
 Static damping         CNVDamp         .... on
   Fraction old density DampFac         ....    0.7000
   Max. Damping (<1)    DampMax         ....    0.9800
   Min. Damping (>=0)   DampMin         ....    0.0000
   Turn off err/grad.   DampErr         ....    0.1000
 Fernandez-Rico         CNVRico         .... off

SCF Procedure:
 Maximum # iterations   MaxIter         ....   125
 SCF integral mode      SCFMode         .... Direct
   Integral package                     .... LIBINT
 Reset frequeny         DirectResetFreq ....    20
 Integral Threshold     Thresh          ....  2.500e-11 Eh
 Primitive CutOff       TCut            ....  2.500e-12 Eh

Convergence Tolerance:
 Convergence Check Mode ConvCheckMode   .... Total+1el-Energy
 Energy Change          TolE            ....  1.000e-08 Eh
 1-El. energy change                    ....  1.000e-05 Eh
 Orbital Gradient       TolG            ....  1.000e-05
 Orbital Rotation angle TolX            ....  1.000e-05
 DIIS Error             TolErr          ....  5.000e-07


Diagonalization of the overlap matrix:
Smallest eigenvalue                        ... 1.002e-04
Time for diagonalization                   ...    0.150 sec
Threshold for overlap eigenvalues          ... 1.000e-08
Number of eigenvalues below threshold      ... 0
Time for construction of square roots      ...    0.019 sec
Total time needed                          ...    0.169 sec

-------------------
DFT GRID GENERATION
-------------------

General Integration Accuracy     IntAcc      ...  4.340
Radial Grid Type                 RadialGrid  ... Gauss-Chebyshev
Angular Grid (max. acc.)         AngularGrid ... Lebedev-194
Angular grid pruning method      GridPruning ... 3 (G Style)
Weight generation scheme         WeightScheme... Becke
Basis function cutoff            BFCut       ...    1.0000e-11
Integration weight cutoff        WCut        ...    1.0000e-14
Grids for H and He will be reduced by one unit

# of grid points (after initial pruning)     ...  41338 (   0.0 sec)
# of grid points (after weights+screening)   ...  37912 (   0.2 sec)
nearest neighbour list constructed           ...    0.0 sec
Grid point re-assignment to atoms done       ...    0.0 sec
Grid point division into batches done        ...    0.1 sec
Reduced shell lists constructed in    0.1 sec

Total number of grid points                  ...    37912
Total number of batches                      ...      600
Average number of points per batch           ...       63
Average number of grid points per atom       ...     1995
Average number of shells per batch           ...    86.22 (68.98%)
Average number of basis functions per batch  ...   200.07 (69.23%)
Average number of large shells per batch     ...    68.51 (79.46%)
Average number of large basis fcns per batch ...   160.33 (80.14%)
Maximum spatial batch extension              ...   7.66,  3.26,  2.83 au
Average spatial batch extension              ...   0.18,  0.16,  0.16 au

Time for grid setup =    0.727 sec

Loading Hartree-Fock densities                     ... done
Calculating cut-offs                               ... done
Setting up the integral package                    ... done
Initializing the effective Hamiltonian             ... done
Starting the Coulomb interaction                   ... done (   0.0 sec)
Reading the grid                                   ... done
Mapping shells                                     ... done
Starting the XC term evaluation                    ... done (   0.4 sec)
  promolecular density results
     # of electrons  =     54.993727336
     EX              =    -40.805916904
     EC              =     -1.794787343
     EX+EC           =    -42.600704247
Transforming the Hamiltonian                       ... done (   0.0 sec)
Diagonalizing the Hamiltonian                      ... done (   0.0 sec)
Back transforming the eigenvectors                 ... done (   0.0 sec)
Now organizing SCF variables                       ... done
--------------
SCF ITERATIONS
--------------
ITER       Energy         Delta-E        Max-DP      RMS-DP      [F,P]     Damp
               ***  Starting incremental Fock matrix formation  ***
  0   -289.9043006432   0.000000000000 0.03197823  0.00077077  0.1622361 0.7000
  1   -289.9757282231  -0.071427579842 0.03448307  0.00064290  0.0876194 0.7000
                               ***Turning on DIIS***
  2   -290.0084716291  -0.032743406000 0.07460468  0.00129633  0.0365654 0.0000
  3   -290.0553080420  -0.046836412891 0.02238625  0.00040456  0.0508741 0.0000
  4   -290.0670395650  -0.011731523015 0.00968007  0.00014177  0.0088529 0.0000
                      *** Initiating the SOSCF procedure ***
                           *** Shutting down DIIS ***
                      *** Re-Reading the Fockian *** 
                      *** Removing any level shift *** 
ITER      Energy       Delta-E        Grad      Rot      Max-DP    RMS-DP
  5   -290.06745864  -0.0004190737  0.000593  0.000593  0.003878  0.000059
               *** Restarting incremental Fock matrix formation ***
  6   -290.06748453  -0.0000258891  0.000291  0.000997  0.002675  0.000041
  7   -290.06748342   0.0000011041  0.000558  0.000765  0.000568  0.000009
  8   -290.06748800  -0.0000045755  0.000053  0.000111  0.000335  0.000005
  9   -290.06748797   0.0000000248  0.000043  0.000049  0.000109  0.000002
 10   -290.06748810  -0.0000001237  0.000006  0.000009  0.000027  0.000000
 11   -290.06748810  -0.0000000005  0.000008  0.000005  0.000010  0.000000
                  ***Gradient check signals convergence***
              ***Rediagonalizing the Fockian in SOSCF/NRSCF***

               *****************************************************
               *                     SUCCESS                       *
               *           SCF CONVERGED AFTER  12 CYCLES          *
               *****************************************************

Setting up the final grid:

General Integration Accuracy     IntAcc      ...  5.010
Radial Grid Type                 RadialGrid  ... Gauss-Chebyshev
Angular Grid (max. acc.)         AngularGrid ... Lebedev-434
Angular grid pruning method      GridPruning ... 3 (G Style)
Weight generation scheme         WeightScheme... Becke
Basis function cutoff            BFCut       ...    1.0000e-11
Integration weight cutoff        WCut        ...    1.0000e-14
Grids for H and He will be reduced by one unit

# of grid points (after initial pruning)     ... 155082 (   0.0 sec)
# of grid points (after weights+screening)   ... 140447 (   2.3 sec)
nearest neighbour list constructed           ...    0.0 sec
Grid point re-assignment to atoms done       ...    0.0 sec
Grid point division into batches done        ...    1.2 sec
Reduced shell lists constructed in    1.4 sec

Total number of grid points                  ...   140447
Total number of batches                      ...     2204
Average number of points per batch           ...       63
Average number of grid points per atom       ...     7392
Average number of shells per batch           ...    86.13 (68.91%)
Average number of basis functions per batch  ...   200.43 (69.35%)
Average number of large shells per batch     ...    68.01 (78.96%)
Average number of large basis fcns per batch ...   160.00 (79.83%)
Maximum spatial batch extension              ...   4.95,  2.74,  2.47 au
Average spatial batch extension              ...   0.11,  0.11,  0.11 au

Final grid set up in    3.8 sec
Final integration                            ... done (   1.0 sec)
Change in XC energy                          ...     0.000438148
Integrated number of electrons               ...    53.999996236
Previous integrated no of electrons          ...    53.999892686
Total Energy       :         -290.06704995 Eh           -7893.12571 eV
  Last Energy change         ...   -2.6645e-09  Tolerance :   1.0000e-08
  Last MAX-Density change    ...    2.1335e-06  Tolerance :   1.0000e-07
             **** THE GBW FILE WAS UPDATED (2056_+.gbw) ****
             **** DENSITY FILE WAS UPDATED (2056_+.scfp.tmp) ****
             **** ENERGY FILE WAS UPDATED (2056_+.en.tmp) ****
Total SCF time: 0 days 0 hours 1 min 26 sec 
           ************************************************************
           *              Shut down parallel processing               *
           ************************************************************

-------------------------   --------------------
FINAL SINGLE POINT ENERGY      -290.067049953460
-------------------------   --------------------



           ************************************************************
           *        Program running with 8 parallel MPI-processes     *
           *              working on a common directory               *
           ************************************************************
------------------------------------------------------------------------------
                         ORCA SCF GRADIENT CALCULATION
------------------------------------------------------------------------------

Gradient of the Kohn-Sham DFT energy:
Kohn-Sham wavefunction type      ... RKS
Hartree-Fock exchange scaling    ...    0.250
Number of operators              ...    1
Number of atoms                  ...   19
Basis set dimensions             ...  289
Integral neglect threshold       ... 2.5e-11
Integral primitive cutoff        ... 2.5e-12

Nuclear repulsion gradient       ... done
One Electron Gradient            ... done
Pre-screening matrix             ... done
Starting the two electron gradient:
Two electron gradient done
Exchange-correlation gradient    ... done

------------------
CARTESIAN GRADIENT
------------------

   1   C   :   -0.000054815    0.000061501    0.000196882
   2   C   :   -0.000037243    0.000015373   -0.000128487
   3   C   :   -0.000061234    0.000068115   -0.000111885
   4   C   :    0.000007402   -0.000059849    0.000087944
   5   C   :   -0.000003226   -0.000077251    0.000199550
   6   C   :   -0.000102832    0.000131444   -0.000098916
   7   N   :    0.000085475    0.000076701   -0.000109452
   8   H   :    0.000068664   -0.000037754   -0.000066750
   9   H   :    0.000043596   -0.000070367   -0.000007777
  10   H   :   -0.000026531    0.000047895    0.000015613
  11   H   :   -0.000012159   -0.000062729   -0.000002214
  12   H   :   -0.000053936    0.000016748    0.000013919
  13   H   :    0.000057124   -0.000017106    0.000000044
  14   H   :    0.000038953    0.000030650   -0.000031863
  15   H   :   -0.000014594   -0.000007571   -0.000000216
  16   H   :    0.000042325   -0.000012837   -0.000008169
  17   H   :   -0.000026438    0.000030198    0.000016095
  18   H   :   -0.000013721   -0.000084536   -0.000042885
  19   H   :    0.000063192   -0.000048623    0.000078565

Norm of the cartesian gradient     ...    0.000515440
RMS gradient                       ...    0.000068272
MAX gradient                       ...    0.000199550

-------
TIMINGS
-------

Total SCF gradient time            ...       34.374 sec

One electron gradient       ....       0.225 sec  (  0.7%)
Prescreening matrices       ....       0.395 sec  (  1.1%)
Two electron gradient       ....      25.945 sec  ( 75.5%)
XC gradient                 ....       3.808 sec  ( 11.1%)
           ************************************************************
           *              Shut down parallel processing               *
           ************************************************************
------------------------------------------------------------------------------
                         ORCA GEOMETRY RELAXATION STEP
------------------------------------------------------------------------------

Reading the OPT-File                    .... done
Getting information on internals        .... done
Copying old internal coords+grads       .... done
Making the new internal coordinates     .... (new redundants).... done
Validating the new internal coordinates .... (new redundants).... done
Calculating the B-matrix                .... done
Calculating the G,G- and P matrices     .... done
Transforming gradient to internals      .... done
Projecting the internal gradient        .... done
Number of atoms                         ....  19
Number of internal coordinates          .... 107
Current Energy                          ....  -290.067049953 Eh
Current gradient norm                   ....     0.000515440 Eh/bohr
Maximum allowed component of the step   ....  0.300
Current trust radius                    ....  0.300
Evaluating the initial hessian          ....  (Almloef) done
Projecting the Hessian                  .... done
Forming the augmented Hessian           .... done
Diagonalizing the augmented Hessian     .... done
Last element of RFO vector              ....  0.999957615
Lowest eigenvalues of augmented Hessian:
 -0.000001859  0.011223872  0.013278244  0.014171056  0.026775466
Length of the computed step             ....  0.009207395
The final length of the internal step   ....  0.009207395
Converting the step to cartesian space:
 Initial RMS(Int)=    0.0008901125
Transforming coordinates:
 Iter   0:  RMS(Cart)=    0.0023439082 RMS(Int)=    0.0008900602
 Iter   1:  RMS(Cart)=    0.0000033393 RMS(Int)=    0.0000015050
 Iter   2:  RMS(Cart)=    0.0000000085 RMS(Int)=    0.0000000032
done
Storing new coordinates                 .... done

                                .--------------------.
          ----------------------|Geometry convergence|---------------------
          Item                value                 Tolerance   Converged
          -----------------------------------------------------------------
          RMS gradient        0.00003994            0.00003000      NO
          MAX gradient        0.00012643            0.00010000      NO
          RMS step            0.00089011            0.00060000      NO
          MAX step            0.00438372            0.00100000      NO
          ....................................................
          Max(Bonds)      0.0001      Max(Angles)    0.03
          Max(Dihed)        0.25      Max(Improp)    0.00
          -----------------------------------------------------------------

The optimization has not yet converged - more geometry cycles are needed


    ---------------------------------------------------------------------------
                         Redundant Internal Coordinates
                            (Angstroem and degrees)

        Definition                    Value    dE/dq     Step     New-Value
    ----------------------------------------------------------------------------
     1. B(C   1,C   0)                1.3238 -0.000123  0.0001    1.3238   
     2. B(C   2,C   1)                1.4956 -0.000022  0.0000    1.4957   
     3. B(C   3,C   2)                1.5290 -0.000058  0.0001    1.5290   
     4. B(C   4,C   3)                1.4960  0.000025 -0.0000    1.4960   
     5. B(C   5,C   4)                1.4700 -0.000104  0.0001    1.4702   
     6. B(N   6,C   5)                1.4840  0.000069 -0.0001    1.4838   
     7. B(N   6,C   4)                1.5009 -0.000017  0.0001    1.5010   
     8. B(H   7,C   0)                1.0832  0.000082 -0.0001    1.0831   
     9. B(H   8,C   0)                1.0856 -0.000068  0.0001    1.0856   
    10. B(H   9,C   1)                1.0884 -0.000049  0.0001    1.0884   
    11. B(H  10,C   2)                1.0942 -0.000061  0.0001    1.0943   
    12. B(H  11,C   2)                1.0987 -0.000037  0.0001    1.0987   
    13. B(H  12,C   3)                1.0969  0.000013 -0.0000    1.0969   
    14. B(H  13,C   3)                1.0947 -0.000004  0.0000    1.0947   
    15. B(H  14,C   4)                1.0856 -0.000010  0.0000    1.0857   
    16. B(H  15,C   5)                1.0830 -0.000003  0.0000    1.0830   
    17. B(H  16,C   5)                1.0824  0.000040 -0.0001    1.0824   
    18. B(H  17,N   6)                1.0137 -0.000088  0.0001    1.0139   
    19. B(H  18,N   6)                1.0146  0.000065 -0.0001    1.0145   
    20. A(C   1,C   0,H   8)          121.78  0.000019   -0.00    121.77   
    21. A(H   7,C   0,H   8)          116.84 -0.000019    0.00    116.85   
    22. A(C   1,C   0,H   7)          121.38 -0.000001    0.00    121.38   
    23. A(C   2,C   1,H   9)          116.27 -0.000024    0.00    116.28   
    24. A(C   0,C   1,C   2)          124.24  0.000006   -0.00    124.24   
    25. A(C   0,C   1,H   9)          119.49  0.000018   -0.00    119.48   
    26. A(C   3,C   2,H  10)          109.68  0.000013   -0.01    109.67   
    27. A(C   1,C   2,H  10)          109.66 -0.000049   -0.00    109.66   
    28. A(C   3,C   2,H  11)          109.39 -0.000114    0.03    109.42   
    29. A(H  10,C   2,H  11)          106.76  0.000023    0.00    106.76   
    30. A(C   1,C   2,H  11)          109.35 -0.000005    0.00    109.36   
    31. A(C   1,C   2,C   3)          111.86  0.000126   -0.02    111.84   
    32. A(H  12,C   3,H  13)          105.92  0.000018   -0.01    105.90   
    33. A(C   2,C   3,H  13)          109.74 -0.000035    0.01    109.76   
    34. A(C   4,C   3,H  13)          106.78  0.000040   -0.01    106.77   
    35. A(C   4,C   3,H  12)          109.79  0.000022   -0.01    109.78   
    36. A(C   2,C   3,C   4)          113.39 -0.000039    0.01    113.40   
    37. A(C   2,C   3,H  12)          110.89 -0.000002    0.00    110.89   
    38. A(C   5,C   4,N   6)           59.92  0.000053   -0.01     59.91   
    39. A(C   5,C   4,H  14)          116.33 -0.000017    0.01    116.34   
    40. A(C   3,C   4,H  14)          116.61  0.000004    0.01    116.62   
    41. A(N   6,C   4,H  14)          110.66  0.000001   -0.01    110.66   
    42. A(C   3,C   4,N   6)          116.84 -0.000027    0.00    116.84   
    43. A(C   3,C   4,C   5)          122.79  0.000005   -0.01    122.78   
    44. A(N   6,C   5,H  16)          113.96  0.000015   -0.01    113.96   
    45. A(C   4,C   5,H  16)          120.26 -0.000002    0.00    120.26   
    46. A(N   6,C   5,H  15)          113.61 -0.000027    0.01    113.62   
    47. A(C   4,C   5,N   6)           61.07 -0.000000    0.00     61.07   
    48. A(C   4,C   5,H  15)          119.09 -0.000009    0.00    119.09   
    49. A(H  15,C   5,H  16)          116.09  0.000013   -0.00    116.09   
    50. A(H  17,N   6,H  18)          114.04 -0.000053    0.01    114.05   
    51. A(C   5,N   6,H  18)          117.84  0.000040   -0.00    117.84   
    52. A(C   4,N   6,H  18)          117.50  0.000050   -0.02    117.48   
    53. A(C   5,N   6,H  17)          118.44  0.000011    0.00    118.44   
    54. A(C   4,N   6,H  17)          119.33  0.000019   -0.00    119.33   
    55. A(C   4,N   6,C   5)           59.00 -0.000052    0.01     59.01   
    56. D(C   2,C   1,C   0,H   7)    179.68 -0.000075    0.11    179.80   
    57. D(H   9,C   1,C   0,H   8)   -179.48  0.000058   -0.09   -179.57   
    58. D(C   2,C   1,C   0,H   8)      0.33  0.000015    0.00      0.33   
    59. D(H   9,C   1,C   0,H   7)     -0.12 -0.000032    0.02     -0.10   
    60. D(H  10,C   2,C   1,C   0)     -2.78  0.000041   -0.22     -3.00   
    61. D(H  11,C   2,C   1,H   9)     60.28  0.000002   -0.13     60.15   
    62. D(H  10,C   2,C   1,H   9)    177.03 -0.000001   -0.13    176.90   
    63. D(H  11,C   2,C   1,C   0)   -119.53  0.000044   -0.22   -119.75   
    64. D(C   3,C   2,C   1,C   0)    119.14  0.000108   -0.25    118.89   
    65. D(C   3,C   2,C   1,H   9)    -61.05  0.000066   -0.16    -61.21   
    66. D(H  12,C   3,C   2,H  10)    177.43  0.000017    0.01    177.43   
    67. D(H  12,C   3,C   2,C   1)     55.52 -0.000015    0.03     55.55   
    68. D(C   4,C   3,C   2,C   1)    179.56 -0.000016    0.03    179.59   
    69. D(C   4,C   3,C   2,H  10)    -58.53  0.000015    0.01    -58.53   
    70. D(H  13,C   3,C   2,H  10)     60.76  0.000017    0.01     60.78   
    71. D(H  13,C   3,C   2,C   1)    -61.15 -0.000015    0.04    -61.11   
    72. D(H  12,C   3,C   2,H  11)    -65.80 -0.000014    0.02    -65.78   
    73. D(H  13,C   3,C   2,H  11)    177.54 -0.000014    0.03    177.57   
    74. D(C   4,C   3,C   2,H  11)     58.24 -0.000015    0.02     58.26   
    75. D(H  14,C   4,C   3,H  13)    -67.79  0.000021    0.02    -67.76   
    76. D(H  14,C   4,C   3,H  12)    177.83 -0.000033    0.05    177.88   
    77. D(H  14,C   4,C   3,C   2)     53.19 -0.000019    0.04     53.24   
    78. D(N   6,C   4,C   3,H  12)     43.73 -0.000008    0.05     43.78   
    79. D(N   6,C   4,C   3,C   2)    -80.90  0.000006    0.04    -80.86   
    80. D(C   5,C   4,C   3,H  13)     88.12 -0.000007    0.04     88.16   
    81. D(C   5,C   4,C   3,H  12)    -26.26 -0.000061    0.07    -26.20   
    82. D(N   6,C   4,C   3,H  13)    158.11  0.000046    0.03    158.14   
    83. D(C   5,C   4,C   3,C   2)   -150.90 -0.000046    0.06   -150.84   
    84. D(H  15,C   5,C   4,C   3)      1.85  0.000021   -0.01      1.84   
    85. D(N   6,C   5,C   4,H  14)    -99.69 -0.000032    0.02    -99.68   
    86. D(N   6,C   5,C   4,C   3)    104.34 -0.000008    0.00    104.34   
    87. D(H  16,C   5,C   4,H  14)      2.71 -0.000012    0.01      2.72   
    88. D(H  16,C   5,C   4,N   6)    102.40  0.000019   -0.01    102.40   
    89. D(H  16,C   5,C   4,C   3)   -153.26  0.000011   -0.01   -153.27   
    90. D(H  15,C   5,C   4,H  14)    157.82 -0.000002    0.00    157.82   
    91. D(H  15,C   5,C   4,N   6)   -102.49  0.000029   -0.01   -102.50   
    92. D(H  18,N   6,C   5,H  16)    140.42 -0.000015    0.02    140.44   
    93. D(H  18,N   6,C   5,H  15)      4.41 -0.000023    0.02      4.43   
    94. D(H  18,N   6,C   5,C   4)   -106.97 -0.000024    0.02   -106.95   
    95. D(H  17,N   6,C   5,H  16)     -3.66  0.000008   -0.01     -3.67   
    96. D(H  17,N   6,C   5,H  15)   -139.68  0.000000   -0.01   -139.68   
    97. D(C   4,N   6,C   5,H  16)   -112.61  0.000008   -0.00   -112.61   
    98. D(C   4,N   6,C   5,H  15)    111.38  0.000001   -0.00    111.38   
    99. D(H  18,N   6,C   4,H  14)   -143.22 -0.000004    0.02   -143.19   
   100. D(H  18,N   6,C   4,C   5)    107.55  0.000006    0.01    107.56   
   101. D(H  17,N   6,C   5,C   4)    108.94 -0.000001   -0.00    108.94   
   102. D(H  18,N   6,C   4,C   3)     -6.55 -0.000026    0.03     -6.52   
   103. D(H  17,N   6,C   4,H  14)      1.80  0.000006    0.01      1.81   
   104. D(H  17,N   6,C   4,C   5)   -107.43  0.000016   -0.01   -107.44   
   105. D(H  17,N   6,C   4,C   3)    138.47 -0.000016    0.01    138.48   
   106. D(C   5,N   6,C   4,H  14)    109.23 -0.000011    0.01    109.25   
   107. D(C   5,N   6,C   4,C   3)   -114.10 -0.000032    0.02   -114.08   
    ----------------------------------------------------------------------------

         *************************************************************
         *                GEOMETRY OPTIMIZATION CYCLE   2            *
         *************************************************************
---------------------------------
CARTESIAN COORDINATES (ANGSTROEM)
---------------------------------
  C      1.026277   -0.000021   -3.290275
  C      0.928044   -0.571161   -2.100017
  C      0.776700    0.180456   -0.815824
  C     -0.531213   -0.167082   -0.104094
  C     -0.713840    0.558951    1.191068
  C     -1.482623    0.002576    2.313916
  N     -0.000614    0.000198    2.387745
  H      1.137878   -0.590291   -4.191516
  H      1.007616    1.078852   -3.409937
  H      0.958121   -1.656401   -2.022486
  H      0.814556    1.256286   -1.012198
  H      1.624257   -0.051249   -0.156170
  H     -0.610659   -1.248381    0.062124
  H     -1.381085    0.101920   -0.739532
  H     -0.620570    1.640152    1.159915
  H     -1.913895   -0.986176    2.218019
  H     -1.957232    0.661468    3.029566
  H      0.451424    0.634063    3.037193
  H      0.477957   -0.887224    2.275330

----------------------------
CARTESIAN COORDINATES (A.U.)
----------------------------
  NO LB      ZA    FRAG    MASS        X           Y           Z
   0 C     6.0000    0    12.011          1.939382821383016         -0.000040530508574         -6.217719071246426
   1 C     6.0000    0    12.011          1.753748310270082         -1.079337476709671         -3.968457679069166
   2 C     6.0000    0    12.011          1.467751221186421          0.341013178898731         -1.541683528996592
   3 C     6.0000    0    12.011         -1.003847860879473         -0.315738460199466         -0.196708956002947
   4 C     6.0000    0    12.011         -1.348961164604556          1.056264237688008          2.250791907665857
   5 C     6.0000    0    12.011         -2.801750929548981          0.004868289349552          4.372667282880045
   6 N     7.0000    0    14.007         -0.001159669725448          0.000374830066056          4.512183392286613
   7 H     1.0000    0     1.008          2.150276927690540         -1.115487948121599         -7.920818029369990
   8 H     1.0000    0     1.008          1.904117427310757          2.038735426981652         -6.443847159731848
   9 H     1.0000    0     1.008          1.810585683054499         -3.130144460044715         -3.821944349137819
  10 H     1.0000    0     1.008          1.539288215435604          2.374037067498393         -1.912777098237727
  11 H     1.0000    0     1.008          3.069401494584149         -0.096847282778237         -0.295118648707952
  12 H     1.0000    0     1.008         -1.153978887302747         -2.359098745318220          0.117396670623920
  13 H     1.0000    0     1.008         -2.609871582239485          0.192601608689006         -1.397512336110244
  14 H     1.0000    0     1.008         -1.172708209448173          3.099438432697641          2.191922472875371
  15 H     1.0000    0     1.008         -3.616737421020856         -1.863601993246497          4.191449009226625
  16 H     1.0000    0     1.008         -3.698632775390327          1.249993967191245          5.725049342381730
  17 H     1.0000    0     1.008          0.853068210375709          1.198205812716209          5.739463526669960
  18 H     1.0000    0     1.008          0.903208093575046         -1.676609909065178          4.299749920959503

--------------------------------
INTERNAL COORDINATES (ANGSTROEM)
--------------------------------
 C      0   0   0   0.000000     0.000     0.000
 C      1   0   0   1.323844     0.000     0.000
 C      2   1   0   1.495656   124.241     0.000
 C      3   2   1   1.529046   111.839   118.889
 C      4   3   2   1.495968   113.397   179.590
 C      5   4   3   1.470159   122.780   209.160
 N      6   5   4   1.483849    61.075   104.338
 H      1   2   3   1.083101   121.376   179.796
 H      1   2   3   1.085650   121.773     0.329
 H      2   1   3   1.088422   119.483   180.104
 H      3   2   1   1.094260   109.663   357.001
 H      3   2   1   1.098719   109.358   240.249
 H      4   3   2   1.096881   110.889    55.549
 H      4   3   2   1.094726   109.756   298.892
 H      5   4   3   1.085664   116.616    53.236
 H      6   5   4   1.082969   119.087     1.838
 H      6   5   4   1.082380   120.259   206.735
 H      7   6   5   1.013857   118.436   108.939
 H      7   6   5   1.014488   117.842   253.050

---------------------------
INTERNAL COORDINATES (A.U.)
---------------------------
 C      0   0   0   0.000000     0.000     0.000
 C      1   0   0   2.501703     0.000     0.000
 C      2   1   0   2.826380   124.241     0.000
 C      3   2   1   2.889478   111.839   118.889
 C      4   3   2   2.826969   113.397   179.590
 C      5   4   3   2.778198   122.780   209.160
 N      6   5   4   2.804068    61.075   104.338
 H      1   2   3   2.046765   121.376   179.796
 H      1   2   3   2.051581   121.773     0.329
 H      2   1   3   2.056819   119.483   180.104
 H      3   2   1   2.067853   109.663   357.001
 H      3   2   1   2.076278   109.358   240.249
 H      4   3   2   2.072806   110.889    55.549
 H      4   3   2   2.068732   109.756   298.892
 H      5   4   3   2.051607   116.616    53.236
 H      6   5   4   2.046515   119.087     1.838
 H      6   5   4   2.045403   120.259   206.735
 H      7   6   5   1.915913   118.436   108.939
 H      7   6   5   1.917104   117.842   253.050



           ************************************************************
           *        Program running with 8 parallel MPI-processes     *
           *              working on a common directory               *
           ************************************************************
           ************************************************************
           *              Shut down parallel processing               *
           ************************************************************


           ************************************************************
           *        Program running with 8 parallel MPI-processes     *
           *              working on a common directory               *
           ************************************************************

Diagonalization of the overlap matrix:
Smallest eigenvalue                        ... 1.003e-04
Time for diagonalization                   ...    0.175 sec
Threshold for overlap eigenvalues          ... 1.000e-08
Number of eigenvalues below threshold      ... 0
Time for construction of square roots      ...    0.025 sec
Total time needed                          ...    0.200 sec

-------------------
DFT GRID GENERATION
-------------------

General Integration Accuracy     IntAcc      ...  4.340
Radial Grid Type                 RadialGrid  ... Gauss-Chebyshev
Angular Grid (max. acc.)         AngularGrid ... Lebedev-194
Angular grid pruning method      GridPruning ... 3 (G Style)
Weight generation scheme         WeightScheme... Becke
Basis function cutoff            BFCut       ...    1.0000e-11
Integration weight cutoff        WCut        ...    1.0000e-14
Grids for H and He will be reduced by one unit

# of grid points (after initial pruning)     ...  41338 (   0.0 sec)
# of grid points (after weights+screening)   ...  37913 (   0.1 sec)
nearest neighbour list constructed           ...    0.0 sec
Grid point re-assignment to atoms done       ...    0.0 sec
Grid point division into batches done        ...    0.1 sec
Reduced shell lists constructed in    0.1 sec

Total number of grid points                  ...    37913
Total number of batches                      ...      600
Average number of points per batch           ...       63
Average number of grid points per atom       ...     1995
Average number of shells per batch           ...    86.32 (69.05%)
Average number of basis functions per batch  ...   200.37 (69.33%)
Average number of large shells per batch     ...    68.53 (79.39%)
Average number of large basis fcns per batch ...   160.53 (80.12%)
Maximum spatial batch extension              ...   7.66,  3.11,  2.84 au
Average spatial batch extension              ...   0.18,  0.16,  0.16 au

Time for grid setup =    0.515 sec

--------------
SCF ITERATIONS
--------------
ITER       Energy         Delta-E        Max-DP      RMS-DP      [F,P]     Damp
               ***  Starting incremental Fock matrix formation  ***
                      *** Initiating the SOSCF procedure ***
                      *** Re-Reading the Fockian *** 
                      *** Removing any level shift *** 
ITER      Energy       Delta-E        Grad      Rot      Max-DP    RMS-DP
  0   -290.06748457 -290.0674845728  0.000376  0.000376  0.000517  0.000009
               *** Restarting incremental Fock matrix formation ***
  1   -290.06748969  -0.0000051178  0.000122  0.000286  0.000204  0.000004
  2   -290.06749042  -0.0000007272  0.000023  0.000067  0.000049  0.000001
  3   -290.06749044  -0.0000000178  0.000022  0.000045  0.000033  0.000000
  4   -290.06749044  -0.0000000036  0.000015  0.000020  0.000015  0.000000
                  ***Gradient check signals convergence***
              ***Rediagonalizing the Fockian in SOSCF/NRSCF***

               *****************************************************
               *                     SUCCESS                       *
               *           SCF CONVERGED AFTER   5 CYCLES          *
               *****************************************************

Setting up the final grid:

General Integration Accuracy     IntAcc      ...  5.010
Radial Grid Type                 RadialGrid  ... Gauss-Chebyshev
Angular Grid (max. acc.)         AngularGrid ... Lebedev-434
Angular grid pruning method      GridPruning ... 3 (G Style)
Weight generation scheme         WeightScheme... Becke
Basis function cutoff            BFCut       ...    1.0000e-11
Integration weight cutoff        WCut        ...    1.0000e-14
Grids for H and He will be reduced by one unit

# of grid points (after initial pruning)     ... 155082 (   0.0 sec)
# of grid points (after weights+screening)   ... 140443 (   1.1 sec)
nearest neighbour list constructed           ...    0.0 sec
Grid point re-assignment to atoms done       ...    0.0 sec
Grid point division into batches done        ...    1.0 sec
Reduced shell lists constructed in    1.3 sec

Total number of grid points                  ...   140443
Total number of batches                      ...     2204
Average number of points per batch           ...       63
Average number of grid points per atom       ...     7392
Average number of shells per batch           ...    86.12 (68.90%)
Average number of basis functions per batch  ...   200.44 (69.36%)
Average number of large shells per batch     ...    68.16 (79.14%)
Average number of large basis fcns per batch ...   160.42 (80.03%)
Maximum spatial batch extension              ...   4.69,  2.74,  2.56 au
Average spatial batch extension              ...   0.11,  0.11,  0.11 au

Final grid set up in    2.9 sec
Final integration                            ... done (   1.2 sec)
Change in XC energy                          ...     0.000439118
Integrated number of electrons               ...    53.999996679
Previous integrated no of electrons          ...    53.999895530
Total Energy       :         -290.06705132 Eh           -7893.12575 eV
  Last Energy change         ...   -3.3781e-09  Tolerance :   1.0000e-08
  Last MAX-Density change    ...    5.2164e-06  Tolerance :   1.0000e-07
             **** THE GBW FILE WAS UPDATED (2056_+.gbw) ****
             **** DENSITY FILE WAS UPDATED (2056_+.scfp.tmp) ****
             **** ENERGY FILE WAS UPDATED (2056_+.en.tmp) ****
Total SCF time: 0 days 0 hours 0 min 41 sec 
           ************************************************************
           *              Shut down parallel processing               *
           ************************************************************

-------------------------   --------------------
FINAL SINGLE POINT ENERGY      -290.067051324538
-------------------------   --------------------



           ************************************************************
           *        Program running with 8 parallel MPI-processes     *
           *              working on a common directory               *
           ************************************************************
------------------------------------------------------------------------------
                         ORCA SCF GRADIENT CALCULATION
------------------------------------------------------------------------------

Gradient of the Kohn-Sham DFT energy:
Kohn-Sham wavefunction type      ... RKS
Hartree-Fock exchange scaling    ...    0.250
Number of operators              ...    1
Number of atoms                  ...   19
Basis set dimensions             ...  289
Integral neglect threshold       ... 2.5e-11
Integral primitive cutoff        ... 2.5e-12

Nuclear repulsion gradient       ... done
One Electron Gradient            ... done
Pre-screening matrix             ... done
Starting the two electron gradient:
Two electron gradient done
Exchange-correlation gradient    ... done

------------------
CARTESIAN GRADIENT
------------------

   1   C   :    0.000067258    0.000000087    0.000057249
   2   C   :    0.000009808    0.000017531   -0.000035015
   3   C   :   -0.000055101    0.000009161   -0.000071692
   4   C   :   -0.000028118   -0.000027423    0.000050912
   5   C   :    0.000018966   -0.000072591    0.000101357
   6   C   :   -0.000094735    0.000087838   -0.000029816
   7   N   :    0.000029141   -0.000009140   -0.000117274
   8   H   :    0.000007636    0.000000941   -0.000005178
   9   H   :   -0.000013946   -0.000005895   -0.000018511
  10   H   :   -0.000058201   -0.000004777    0.000009718
  11   H   :   -0.000019465   -0.000008338   -0.000008560
  12   H   :    0.000012723    0.000010914    0.000012725
  13   H   :    0.000040738    0.000001795   -0.000000288
  14   H   :    0.000007980    0.000012318   -0.000009220
  15   H   :    0.000007896    0.000003469   -0.000002028
  16   H   :    0.000030188   -0.000012099   -0.000003837
  17   H   :    0.000000331    0.000001104   -0.000001410
  18   H   :    0.000019470   -0.000013158    0.000014568
  19   H   :    0.000017431    0.000008264    0.000056301

Norm of the cartesian gradient     ...    0.000287304
RMS gradient                       ...    0.000038054
MAX gradient                       ...    0.000117274

-------
TIMINGS
-------

Total SCF gradient time            ...       34.653 sec

One electron gradient       ....       0.183 sec  (  0.5%)
Prescreening matrices       ....       0.466 sec  (  1.3%)
Two electron gradient       ....      29.480 sec  ( 85.1%)
XC gradient                 ....       3.327 sec  (  9.6%)
           ************************************************************
           *              Shut down parallel processing               *
           ************************************************************
------------------------------------------------------------------------------
                         ORCA GEOMETRY RELAXATION STEP
------------------------------------------------------------------------------

Reading the OPT-File                    .... done
Getting information on internals        .... done
Copying old internal coords+grads       .... done
Making the new internal coordinates     .... (new redundants).... done
Validating the new internal coordinates .... (new redundants).... done
Calculating the B-matrix                .... done
Calculating the G,G- and P matrices     .... done
Transforming gradient to internals      .... done
Projecting the internal gradient        .... done
Number of atoms                         ....  19
Number of internal coordinates          .... 107
Current Energy                          ....  -290.067051325 Eh
Current gradient norm                   ....     0.000287304 Eh/bohr
Maximum allowed component of the step   ....  0.300
Current trust radius                    ....  0.300
Updating the Hessian (BFGS)             .... done
Forming the augmented Hessian           .... done
Diagonalizing the augmented Hessian     .... done
Last element of RFO vector              ....  0.999776291
Lowest eigenvalues of augmented Hessian:
 -0.000002426  0.005097274  0.011257874  0.014101232  0.027522028
Length of the computed step             ....  0.021155784
The final length of the internal step   ....  0.021155784
Converting the step to cartesian space:
 Initial RMS(Int)=    0.0020452069
Transforming coordinates:
 Iter   0:  RMS(Cart)=    0.0048808179 RMS(Int)=    0.0020450332
 Iter   1:  RMS(Cart)=    0.0000133595 RMS(Int)=    0.0000059271
 Iter   2:  RMS(Cart)=    0.0000000771 RMS(Int)=    0.0000000293
done
Storing new coordinates                 .... done

                                .--------------------.
          ----------------------|Geometry convergence|---------------------
          Item                value                 Tolerance   Converged
          -----------------------------------------------------------------
          Energy change      -0.00000137            0.00000100      NO
          RMS gradient        0.00001892            0.00003000      YES
          MAX gradient        0.00008265            0.00010000      YES
          RMS step            0.00204521            0.00060000      NO
          MAX step            0.00945531            0.00100000      NO
          ....................................................
          Max(Bonds)      0.0003      Max(Angles)    0.05
          Max(Dihed)        0.54      Max(Improp)    0.00
          -----------------------------------------------------------------

The optimization has not yet converged - more geometry cycles are needed


    ---------------------------------------------------------------------------
                         Redundant Internal Coordinates
                            (Angstroem and degrees)

        Definition                    Value    dE/dq     Step     New-Value
    ----------------------------------------------------------------------------
     1. B(C   1,C   0)                1.3238 -0.000026  0.0001    1.3239   
     2. B(C   2,C   1)                1.4957 -0.000014  0.0001    1.4957   
     3. B(C   3,C   2)                1.5290 -0.000005  0.0001    1.5291   
     4. B(C   4,C   3)                1.4960  0.000004 -0.0000    1.4959   
     5. B(C   5,C   4)                1.4702 -0.000041  0.0002    1.4704   
     6. B(N   6,C   5)                1.4838  0.000036 -0.0003    1.4836   
     7. B(N   6,C   4)                1.5010 -0.000015  0.0001    1.5011   
     8. B(H   7,C   0)                1.0831  0.000003 -0.0001    1.0830   
     9. B(H   8,C   0)                1.0856 -0.000002  0.0001    1.0857   
    10. B(H   9,C   1)                1.0884  0.000003  0.0000    1.0885   
    11. B(H  10,C   2)                1.0943 -0.000007  0.0001    1.0943   
    12. B(H  11,C   2)                1.0987  0.000015 -0.0000    1.0987   
    13. B(H  12,C   3)                1.0969 -0.000005  0.0000    1.0969   
    14. B(H  13,C   3)                1.0947  0.000002 -0.0000    1.0947   
    15. B(H  14,C   4)                1.0857  0.000003 -0.0000    1.0857   
    16. B(H  15,C   5)                1.0830  0.000001 -0.0000    1.0830   
    17. B(H  16,C   5)                1.0824 -0.000001 -0.0000    1.0824   
    18. B(H  17,N   6)                1.0139  0.000009  0.0000    1.0139   
    19. B(H  18,N   6)                1.0145 -0.000004 -0.0000    1.0145   
    20. A(C   1,C   0,H   8)          121.77  0.000018   -0.01    121.76   
    21. A(H   7,C   0,H   8)          116.85 -0.000015    0.01    116.86   
    22. A(C   1,C   0,H   7)          121.38 -0.000003    0.00    121.38   
    23. A(C   2,C   1,H   9)          116.28 -0.000017    0.01    116.28   
    24. A(C   0,C   1,C   2)          124.24  0.000004   -0.00    124.24   
    25. A(C   0,C   1,H   9)          119.48  0.000013   -0.01    119.48   
    26. A(C   3,C   2,H  10)          109.67 -0.000000   -0.02    109.65   
    27. A(C   1,C   2,H  10)          109.66 -0.000029   -0.00    109.66   
    28. A(C   3,C   2,H  11)          109.42 -0.000053    0.05    109.47   
    29. A(H  10,C   2,H  11)          106.76  0.000013    0.01    106.77   
    30. A(C   1,C   2,H  11)          109.36 -0.000017    0.02    109.37   
    31. A(C   1,C   2,C   3)          111.84  0.000083   -0.05    111.79   
    32. A(H  12,C   3,H  13)          105.90  0.000009   -0.03    105.87   
    33. A(C   2,C   3,H  13)          109.76 -0.000007    0.02    109.77   
    34. A(C   4,C   3,H  13)          106.77  0.000018   -0.01    106.75   
    35. A(C   4,C   3,H  12)          109.78  0.000016   -0.01    109.77   
    36. A(C   2,C   3,C   4)          113.40 -0.000029    0.02    113.42   
    37. A(C   2,C   3,H  12)          110.89 -0.000004    0.01    110.90   
    38. A(C   5,C   4,N   6)           59.91  0.000026   -0.02     59.89   
    39. A(C   5,C   4,H  14)          116.34 -0.000008    0.02    116.36   
    40. A(C   3,C   4,H  14)          116.62 -0.000005    0.01    116.63   
    41. A(N   6,C   4,H  14)          110.66 -0.000002   -0.00    110.65   
    42. A(C   3,C   4,N   6)          116.84 -0.000006   -0.01    116.84   
    43. A(C   3,C   4,C   5)          122.78  0.000007   -0.02    122.76   
    44. A(N   6,C   5,H  16)          113.96  0.000006   -0.01    113.95   
    45. A(C   4,C   5,H  16)          120.26  0.000001   -0.00    120.26   
    46. A(N   6,C   5,H  15)          113.62 -0.000014    0.02    113.65   
    47. A(C   4,C   5,N   6)           61.07 -0.000006    0.01     61.08   
    48. A(C   4,C   5,H  15)          119.09 -0.000005    0.00    119.09   
    49. A(H  15,C   5,H  16)          116.09  0.000008   -0.01    116.08   
    50. A(H  17,N   6,H  18)          114.05 -0.000030    0.02    114.07   
    51. A(C   5,N   6,H  18)          117.84  0.000020    0.00    117.84   
    52. A(C   4,N   6,H  18)          117.48  0.000028   -0.04    117.44   
    53. A(C   5,N   6,H  17)          118.44  0.000005    0.00    118.44   
    54. A(C   4,N   6,H  17)          119.33  0.000010   -0.01    119.32   
    55. A(C   4,N   6,C   5)           59.01 -0.000021    0.01     59.02   
    56. D(C   2,C   1,C   0,H   7)    179.80 -0.000012    0.11    179.90   
    57. D(H   9,C   1,C   0,H   8)   -179.57 -0.000008   -0.04   -179.60   
    58. D(C   2,C   1,C   0,H   8)      0.33 -0.000018    0.06      0.39   
    59. D(H   9,C   1,C   0,H   7)     -0.10 -0.000002    0.01     -0.09   
    60. D(H  10,C   2,C   1,C   0)     -3.00  0.000025   -0.48     -3.48   
    61. D(H  11,C   2,C   1,H   9)     60.15  0.000026   -0.40     59.75   
    62. D(H  10,C   2,C   1,H   9)    176.90  0.000016   -0.39    176.51   
    63. D(H  11,C   2,C   1,C   0)   -119.75  0.000035   -0.50   -120.25   
    64. D(C   3,C   2,C   1,C   0)    118.89  0.000060   -0.54    118.35   
    65. D(C   3,C   2,C   1,H   9)    -61.21  0.000051   -0.45    -61.66   
    66. D(H  12,C   3,C   2,H  10)    177.43  0.000011    0.01    177.45   
    67. D(H  12,C   3,C   2,C   1)     55.55 -0.000008    0.06     55.61   
    68. D(C   4,C   3,C   2,C   1)    179.59 -0.000012    0.07    179.66   
    69. D(C   4,C   3,C   2,H  10)    -58.53  0.000007    0.03    -58.50   
    70. D(H  13,C   3,C   2,H  10)     60.78  0.000007    0.03     60.81   
    71. D(H  13,C   3,C   2,C   1)    -61.11 -0.000012    0.08    -61.03   
    72. D(H  12,C   3,C   2,H  11)    -65.78 -0.000004    0.04    -65.74   
    73. D(H  13,C   3,C   2,H  11)    177.57 -0.000008    0.06    177.63   
    74. D(C   4,C   3,C   2,H  11)     58.26 -0.000008    0.05     58.32   
    75. D(H  14,C   4,C   3,H  13)    -67.76  0.000005    0.08    -67.69   
    76. D(H  14,C   4,C   3,H  12)    177.88 -0.000023    0.12    178.00   
    77. D(H  14,C   4,C   3,C   2)     53.24 -0.000009    0.10     53.34   
    78. D(N   6,C   4,C   3,H  12)     43.78 -0.000007    0.12     43.90   
    79. D(N   6,C   4,C   3,C   2)    -80.86  0.000007    0.10    -80.76   
    80. D(C   5,C   4,C   3,H  13)     88.16 -0.000011    0.11     88.27   
    81. D(C   5,C   4,C   3,H  12)    -26.20 -0.000038    0.15    -26.05   
    82. D(N   6,C   4,C   3,H  13)    158.14  0.000020    0.07    158.21   
    83. D(C   5,C   4,C   3,C   2)   -150.84 -0.000024    0.13   -150.71   
    84. D(H  15,C   5,C   4,C   3)      1.84  0.000020   -0.04      1.80   
    85. D(N   6,C   5,C   4,H  14)    -99.68 -0.000012    0.02    -99.66   
    86. D(N   6,C   5,C   4,C   3)    104.34  0.000003   -0.01    104.33   
    87. D(H  16,C   5,C   4,H  14)      2.72 -0.000008    0.02      2.74   
    88. D(H  16,C   5,C   4,N   6)    102.40  0.000004   -0.01    102.39   
    89. D(H  16,C   5,C   4,C   3)   -153.27  0.000007   -0.01   -153.28   
    90. D(H  15,C   5,C   4,H  14)    157.82  0.000005   -0.01    157.81   
    91. D(H  15,C   5,C   4,N   6)   -102.50  0.000017   -0.03   -102.53   
    92. D(H  18,N   6,C   5,H  16)    140.44 -0.000014    0.04    140.48   
    93. D(H  18,N   6,C   5,H  15)      4.43 -0.000018    0.04      4.47   
    94. D(H  18,N   6,C   5,C   4)   -106.95 -0.000017    0.04   -106.90   
    95. D(H  17,N   6,C   5,H  16)     -3.67  0.000006   -0.01     -3.68   
    96. D(H  17,N   6,C   5,H  15)   -139.68  0.000002   -0.01   -139.70   
    97. D(C   4,N   6,C   5,H  16)   -112.61  0.000003   -0.00   -112.61   
    98. D(C   4,N   6,C   5,H  15)    111.38 -0.000001   -0.01    111.37   
    99. D(H  18,N   6,C   4,H  14)   -143.19  0.000001    0.04   -143.15   
   100. D(H  18,N   6,C   4,C   5)    107.56  0.000004    0.02    107.58   
   101. D(H  17,N   6,C   5,C   4)    108.94  0.000003   -0.01    108.93   
   102. D(H  18,N   6,C   4,C   3)     -6.52 -0.000015    0.05     -6.47   
   103. D(H  17,N   6,C   4,H  14)      1.81  0.000004    0.00      1.81   
   104. D(H  17,N   6,C   4,C   5)   -107.44  0.000007   -0.01   -107.45   
   105. D(H  17,N   6,C   4,C   3)    138.48 -0.000012    0.02    138.49   
   106. D(C   5,N   6,C   4,H  14)    109.25 -0.000003    0.02    109.26   
   107. D(C   5,N   6,C   4,C   3)   -114.08 -0.000019    0.03   -114.06   
    ----------------------------------------------------------------------------

         *************************************************************
         *                GEOMETRY OPTIMIZATION CYCLE   3            *
         *************************************************************
---------------------------------
CARTESIAN COORDINATES (ANGSTROEM)
---------------------------------
  C      1.021541   -0.000090   -3.289554
  C      0.930948   -0.571740   -2.098840
  C      0.780555    0.179180   -0.814060
  C     -0.529305   -0.166155   -0.104709
  C     -0.713470    0.559714    1.190294
  C     -1.483376    0.002503    2.312226
  N     -0.001726    0.000547    2.387833
  H      1.131058   -0.589807   -4.191319
  H      0.997621    1.078775   -3.408912
  H      0.965500   -1.656906   -2.021684
  H      0.820563    1.255155   -1.009631
  H      1.627146   -0.054686   -0.153966
  H     -0.611234   -1.247340    0.061089
  H     -1.377731    0.104248   -0.741474
  H     -0.620119    1.640920    1.159653
  H     -1.914648   -0.986144    2.215269
  H     -1.958904    0.660935    3.027648
  H      0.449388    0.634364    3.038028
  H      0.477291   -0.886534    2.274935

----------------------------
CARTESIAN COORDINATES (A.U.)
----------------------------
  NO LB      ZA    FRAG    MASS        X           Y           Z
   0 C     6.0000    0    12.011          1.930432403468462         -0.000170761810172         -6.216356073504171
   1 C     6.0000    0    12.011          1.759236300743045         -1.080432209488201         -3.966232084595222
   2 C     6.0000    0    12.011          1.475034791751833          0.338600741025442         -1.538351020726066
   3 C     6.0000    0    12.011         -1.000242208923073         -0.313987812837408         -0.197871455283312
   4 C     6.0000    0    12.011         -1.348262071012637          1.057706460294774          2.249330137500426
   5 C     6.0000    0    12.011         -2.803173726641932          0.004730396215214          4.369474796585183
   6 N     7.0000    0    14.007         -0.003262016188478          0.001034034774799          4.512349913572819
   7 H     1.0000    0     1.008          2.137390138172616         -1.114572982497746         -7.920444781179901
   8 H     1.0000    0     1.008          1.885231129607728          2.038588659757886         -6.441909972135334
   9 H     1.0000    0     1.008          1.824530589626839         -3.131098947903488         -3.820428852372284
  10 H     1.0000    0     1.008          1.550639773552132          2.371899288840826         -1.907925773844380
  11 H     1.0000    0     1.008          3.074860114537619         -0.103341835425489         -0.290952737499699
  12 H     1.0000    0     1.008         -1.155065053383221         -2.357130782082274          0.115440733334213
  13 H     1.0000    0     1.008         -2.603535050084667          0.197000700604992         -1.401183294466430
  14 H     1.0000    0     1.008         -1.171855074233141          3.100888769709401          2.191426179357503
  15 H     1.0000    0     1.008         -3.618159522690205         -1.863542048986223          4.186251406376986
  16 H     1.0000    0     1.008         -3.701791433033431          1.248986335636174          5.721424968341680
  17 H     1.0000    0     1.008          0.849221046755634          1.198774584987491          5.741041383135334
  18 H     1.0000    0     1.008          0.901949772680655         -1.675306545031659          4.299003196361571

--------------------------------
INTERNAL COORDINATES (ANGSTROEM)
--------------------------------
 C      0   0   0   0.000000     0.000     0.000
 C      1   0   0   1.323930     0.000     0.000
 C      2   1   0   1.495713   124.239     0.000
 C      3   2   1   1.529107   111.791   118.347
 C      4   3   2   1.495940   113.420   179.664
 C      5   4   3   1.470364   122.760   209.289
 N      6   5   4   1.483579    61.082   104.330
 H      1   2   3   1.083023   121.377   179.905
 H      1   2   3   1.085711   121.764     0.390
 H      2   1   3   1.088454   119.476   180.005
 H      3   2   1   1.094336   109.660   356.517
 H      3   2   1   1.098697   109.374   239.750
 H      4   3   2   1.096887   110.898    55.612
 H      4   3   2   1.094721   109.772   298.974
 H      5   4   3   1.085660   116.629    53.336
 H      6   5   4   1.082968   119.089     1.797
 H      6   5   4   1.082353   120.256   206.721
 H      7   6   5   1.013895   118.438   108.932
 H      7   6   5   1.014454   117.844   253.095

---------------------------
INTERNAL COORDINATES (A.U.)
---------------------------
 C      0   0   0   0.000000     0.000     0.000
 C      1   0   0   2.501865     0.000     0.000
 C      2   1   0   2.826487   124.239     0.000
 C      3   2   1   2.889594   111.791   118.347
 C      4   3   2   2.826917   113.420   179.664
 C      5   4   3   2.778586   122.760   209.289
 N      6   5   4   2.803557    61.082   104.330
 H      1   2   3   2.046617   121.377   179.905
 H      1   2   3   2.051696   121.764     0.390
 H      2   1   3   2.056880   119.476   180.005
 H      3   2   1   2.067995   109.660   356.517
 H      3   2   1   2.076236   109.374   239.750
 H      4   3   2   2.072816   110.898    55.612
 H      4   3   2   2.068723   109.772   298.974
 H      5   4   3   2.051601   116.629    53.336
 H      6   5   4   2.046513   119.089     1.797
 H      6   5   4   2.045350   120.256   206.721
 H      7   6   5   1.915983   118.438   108.932
 H      7   6   5   1.917040   117.844   253.095



           ************************************************************
           *        Program running with 8 parallel MPI-processes     *
           *              working on a common directory               *
           ************************************************************
           ************************************************************
           *              Shut down parallel processing               *
           ************************************************************


           ************************************************************
           *        Program running with 8 parallel MPI-processes     *
           *              working on a common directory               *
           ************************************************************

Diagonalization of the overlap matrix:
Smallest eigenvalue                        ... 1.004e-04
Time for diagonalization                   ...    0.320 sec
Threshold for overlap eigenvalues          ... 1.000e-08
Number of eigenvalues below threshold      ... 0
Time for construction of square roots      ...    0.026 sec
Total time needed                          ...    0.346 sec

-------------------
DFT GRID GENERATION
-------------------

General Integration Accuracy     IntAcc      ...  4.340
Radial Grid Type                 RadialGrid  ... Gauss-Chebyshev
Angular Grid (max. acc.)         AngularGrid ... Lebedev-194
Angular grid pruning method      GridPruning ... 3 (G Style)
Weight generation scheme         WeightScheme... Becke
Basis function cutoff            BFCut       ...    1.0000e-11
Integration weight cutoff        WCut        ...    1.0000e-14
Grids for H and He will be reduced by one unit

# of grid points (after initial pruning)     ...  41338 (   0.0 sec)
# of grid points (after weights+screening)   ...  37920 (   0.2 sec)
nearest neighbour list constructed           ...    0.0 sec
Grid point re-assignment to atoms done       ...    0.0 sec
Grid point division into batches done        ...    0.1 sec
Reduced shell lists constructed in    0.1 sec

Total number of grid points                  ...    37920
Total number of batches                      ...      601
Average number of points per batch           ...       63
Average number of grid points per atom       ...     1996
Average number of shells per batch           ...    86.65 (69.32%)
Average number of basis functions per batch  ...   201.38 (69.68%)
Average number of large shells per batch     ...    68.84 (79.45%)
Average number of large basis fcns per batch ...   161.31 (80.10%)
Maximum spatial batch extension              ...   7.66,  3.11,  3.11 au
Average spatial batch extension              ...   0.19,  0.17,  0.17 au

Time for grid setup =    0.576 sec

--------------
SCF ITERATIONS
--------------
ITER       Energy         Delta-E        Max-DP      RMS-DP      [F,P]     Damp
               ***  Starting incremental Fock matrix formation  ***
                      *** Initiating the SOSCF procedure ***
                      *** Re-Reading the Fockian *** 
                      *** Removing any level shift *** 
ITER      Energy       Delta-E        Grad      Rot      Max-DP    RMS-DP
  0   -290.06746707 -290.0674670746  0.000804  0.000804  0.001117  0.000019
               *** Restarting incremental Fock matrix formation ***
  1   -290.06749030  -0.0000232280  0.000264  0.000615  0.000424  0.000009
  2   -290.06749368  -0.0000033748  0.000048  0.000144  0.000098  0.000002
  3   -290.06749378  -0.0000000980  0.000023  0.000060  0.000049  0.000001
  4   -290.06749378  -0.0000000024  0.000026  0.000038  0.000025  0.000000
  5   -290.06749379  -0.0000000090  0.000005  0.000008  0.000008  0.000000
  6   -290.06749379   0.0000000006  0.000003  0.000002  0.000004  0.000000
                 **** Energy Check signals convergence ****
              ***Rediagonalizing the Fockian in SOSCF/NRSCF***

               *****************************************************
               *                     SUCCESS                       *
               *           SCF CONVERGED AFTER   7 CYCLES          *
               *****************************************************

Setting up the final grid:

General Integration Accuracy     IntAcc      ...  5.010
Radial Grid Type                 RadialGrid  ... Gauss-Chebyshev
Angular Grid (max. acc.)         AngularGrid ... Lebedev-434
Angular grid pruning method      GridPruning ... 3 (G Style)
Weight generation scheme         WeightScheme... Becke
Basis function cutoff            BFCut       ...    1.0000e-11
Integration weight cutoff        WCut        ...    1.0000e-14
Grids for H and He will be reduced by one unit

# of grid points (after initial pruning)     ... 155082 (   0.0 sec)
# of grid points (after weights+screening)   ... 140451 (   1.0 sec)
nearest neighbour list constructed           ...    0.0 sec
Grid point re-assignment to atoms done       ...    0.0 sec
Grid point division into batches done        ...    0.9 sec
Reduced shell lists constructed in    1.1 sec

Total number of grid points                  ...   140451
Total number of batches                      ...     2205
Average number of points per batch           ...       63
Average number of grid points per atom       ...     7392
Average number of shells per batch           ...    86.09 (68.87%)
Average number of basis functions per batch  ...   200.38 (69.34%)
Average number of large shells per batch     ...    68.17 (79.19%)
Average number of large basis fcns per batch ...   160.43 (80.06%)
Maximum spatial batch extension              ...   7.45,  2.84,  2.58 au
Average spatial batch extension              ...   0.12,  0.11,  0.11 au

Final grid set up in    2.8 sec
Final integration                            ... done (   1.0 sec)
Change in XC energy                          ...     0.000441014
Integrated number of electrons               ...    53.999997660
Previous integrated no of electrons          ...    53.999903096
Total Energy       :         -290.06705277 Eh           -7893.12578 eV
  Last Energy change         ...    1.7678e-11  Tolerance :   1.0000e-08
  Last MAX-Density change    ...    1.6293e-06  Tolerance :   1.0000e-07
             **** THE GBW FILE WAS UPDATED (2056_+.gbw) ****
             **** DENSITY FILE WAS UPDATED (2056_+.scfp.tmp) ****
             **** ENERGY FILE WAS UPDATED (2056_+.en.tmp) ****
Total SCF time: 0 days 0 hours 0 min 49 sec 
           ************************************************************
           *              Shut down parallel processing               *
[...]
     18       0.000698  -0.071403   0.000405   0.000265   0.000439   0.000127
     19      -0.002654   0.017695   0.000213   0.000056  -0.000136  -0.000059
     20       0.014019  -0.040586   0.000445   0.000103   0.000417   0.000514
     21      -0.000529   0.000323  -0.013806  -0.000124   0.000149  -0.001195
     22      -0.019507   0.002842   0.435591   0.002993   0.000162   0.005658
     23       0.011702  -0.001198   0.034182   0.002651   0.000913   0.005877
     24      -0.002363   0.000497   0.049159  -0.000201  -0.000313   0.000726
     25       0.004127  -0.001140  -0.292317  -0.006302   0.000241  -0.007370
     26       0.017757  -0.001853  -0.378894  -0.000224  -0.000195  -0.002141
     27      -0.002859   0.000702  -0.038521   0.000811  -0.000494   0.002902
     28      -0.001234   0.001236   0.227340   0.013404   0.001495  -0.099612
     29       0.009885  -0.001509   0.344187  -0.002300   0.001974   0.008675
     30      -0.017523  -0.005361   0.043353  -0.002248  -0.003419   0.029251
     31      -0.003122   0.000567  -0.040059   0.321520  -0.092455   0.818584
     32      -0.028012   0.006736  -0.164432  -0.070421   0.015295  -0.150978
     33       0.003238  -0.001500  -0.038550   0.715748   0.084795  -0.175205
     34      -0.029468   0.004165   0.056645  -0.213535  -0.021945   0.039202
     35      -0.008786   0.003942   0.111064   0.562149   0.065963  -0.137175
     36      -0.017853  -0.026730   0.011017  -0.001276   0.054228  -0.009504
     37      -0.014364   0.008752  -0.007329  -0.034120   0.880543  -0.095663
     38      -0.088621  -0.010511  -0.017774   0.007561  -0.136483   0.008584
     39      -0.018683  -0.007615   0.018910  -0.078571   0.315672   0.364713
     40      -0.036759  -0.035470  -0.004527   0.027296  -0.121063  -0.118150
     41       0.023922  -0.002873  -0.018564  -0.063378   0.247118   0.284620
     42      -0.003797   0.019134  -0.004061  -0.001276  -0.003237   0.000733
     43       0.021459  -0.015019  -0.000356  -0.004779  -0.038221   0.011736
     44       0.153533  -0.041290   0.013706   0.001345   0.002451   0.001076
     45       0.481107  -0.033850  -0.001278   0.000127  -0.000765   0.001057
     46      -0.227210   0.029053   0.000643   0.000207  -0.003982   0.002816
     47      -0.424391   0.060447  -0.000941  -0.000322  -0.002974  -0.000267
     48       0.458198  -0.031105  -0.000862   0.000671   0.000845   0.000238
     49       0.475878  -0.062827  -0.001017  -0.000415   0.001643  -0.000670
     50      -0.036961   0.005274   0.001495   0.000705  -0.001100  -0.000621
     51       0.102249   0.492713  -0.002099  -0.000653  -0.001199   0.000514
     52      -0.095474  -0.485643   0.000587  -0.000326   0.000644  -0.000404
     53       0.036835   0.086595   0.001749   0.000978  -0.000355   0.000941
     54       0.105098   0.479043  -0.000860  -0.000925  -0.004916   0.000739
     55       0.046872   0.233741   0.000186  -0.001258   0.002292   0.000171
     56       0.067508   0.452341  -0.003598   0.001729  -0.003542  -0.000199
                 48         49         50         51         52         53    
      0       0.000024  -0.001984  -0.003028  -0.000002  -0.000001  -0.008205
      1       0.000030  -0.010313  -0.044411  -0.000012  -0.000008   0.082426
      2      -0.000199   0.024739   0.049045   0.000064   0.000022   0.053117
      3      -0.000259   0.002876  -0.000697   0.000014  -0.000051  -0.000282
      4       0.006543  -0.073914   0.039408  -0.000072  -0.000061   0.010409
      5      -0.000265   0.005154  -0.011966  -0.000015   0.000059  -0.001851
      6       0.012241   0.002233  -0.001279   0.000015   0.000041  -0.000111
      7      -0.038417  -0.009147   0.003437  -0.000091   0.000988   0.000468
      8       0.016602   0.004633  -0.002491  -0.000010  -0.000237  -0.000815
      9       0.046346   0.000489  -0.000306  -0.000419  -0.001373   0.000010
     10      -0.049925  -0.001910   0.000971   0.000433   0.005005  -0.000027
     11       0.042259   0.000724  -0.000272   0.000131  -0.003296   0.000017
     12       0.001360   0.000140  -0.000104  -0.000776   0.007012  -0.000007
     13       0.004529   0.000384  -0.000214   0.000040   0.086474  -0.000025
     14       0.001386  -0.000058   0.000053   0.002829  -0.003006  -0.000004
     15       0.000006  -0.000061  -0.000021   0.052419  -0.002047  -0.000011
     16       0.000220  -0.000078   0.000016   0.021029  -0.006545   0.000045
     17       0.000143   0.000012   0.000025  -0.033728  -0.001140   0.000025
     18      -0.000193   0.000044  -0.000021  -0.002041   0.001045  -0.000010
     19      -0.000191  -0.000067   0.000024   0.000235  -0.001787   0.000014
     20      -0.001036  -0.000008  -0.000007  -0.000706   0.000057   0.000001
     21      -0.000226   0.033134   0.048572   0.000056   0.000140   0.082318
     22       0.003745  -0.186045  -0.271788  -0.000387  -0.000164  -0.439043
     23       0.004158  -0.272884  -0.395380  -0.000573  -0.000192  -0.679438
     24      -0.000032  -0.008351  -0.020580  -0.000010  -0.000069   0.014000
     25      -0.001684   0.309621   0.755570   0.000511   0.000317  -0.560108
     26      -0.001539  -0.029743  -0.076579  -0.000066   0.000053   0.068251
     27       0.002548  -0.033924   0.015922  -0.000057   0.000162   0.003915
     28      -0.078854   0.876436  -0.425133   0.000937  -0.000406  -0.101324
     29       0.007681  -0.060309   0.031525  -0.000044  -0.000559   0.008290
     30       0.016829   0.002832  -0.001395  -0.000094  -0.002207   0.000013
     31       0.413212   0.104452  -0.036607   0.000923  -0.012940  -0.009448
     32      -0.078350  -0.016416   0.008042  -0.000051   0.004103  -0.001418
     33      -0.164564  -0.033114   0.018260   0.000010   0.000961   0.002477
     34       0.041583   0.007683  -0.003840  -0.000031   0.000103  -0.001212
     35      -0.123401  -0.028953   0.017219   0.000125   0.000681   0.002679
     36       0.038105   0.003754  -0.001453  -0.000351  -0.002914  -0.000488
     37       0.410474   0.019841  -0.009060  -0.005873  -0.060394  -0.000442
     38      -0.057737  -0.005477   0.002190  -0.000911   0.005023   0.000598
     39      -0.589537  -0.008364   0.004858   0.002966   0.024901   0.000071
     40       0.186359   0.002100  -0.001440  -0.001434  -0.007255   0.000212
     41      -0.452751  -0.005876   0.003537   0.001150   0.022414  -0.000137
     42      -0.006552  -0.000567   0.000309  -0.002428  -0.084739   0.000065
     43      -0.058521  -0.002928   0.001690  -0.015353  -0.988035   0.000166
     44       0.004968   0.001061  -0.000453   0.002963   0.022904  -0.000121
     45      -0.000447   0.000494   0.000068  -0.281178   0.019313  -0.000086
     46      -0.002238   0.001006   0.000232  -0.664307   0.042670  -0.000207
     47      -0.000886   0.000014   0.000056  -0.073447   0.010167  -0.000005
     48      -0.001398   0.000250   0.000112  -0.293535  -0.015837   0.000219
     49       0.001998  -0.000262  -0.000241   0.426406   0.020252  -0.000305
     50       0.002361  -0.000535  -0.000043   0.448947   0.017757  -0.000328
     51      -0.001051  -0.000157   0.000102  -0.004114   0.004477   0.000047
     52       0.001101  -0.000058   0.000065  -0.002657   0.007819   0.000073
     53      -0.001655  -0.000107   0.000101  -0.002834   0.000387   0.000059
     54      -0.002563  -0.000598   0.000275  -0.003580  -0.001385   0.000140
     55       0.003212   0.000793  -0.000339   0.003877  -0.000130  -0.000245
     56      -0.002512  -0.000151   0.000045   0.000699   0.007017  -0.000040
                  54         55         56    
      0      -0.000002   0.000008   0.000001
      1       0.000045  -0.000017  -0.000003
      2       0.000020  -0.000003  -0.000011
      3      -0.000013   0.000031  -0.000006
      4       0.000013   0.000091  -0.000017
      5      -0.000002   0.000010   0.000018
      6      -0.000080  -0.000108   0.000070
      7       0.000171   0.000017  -0.000067
      8       0.000002   0.000036   0.000050
      9      -0.000271  -0.000277  -0.000210
     10      -0.000406   0.000657  -0.000286
     11       0.000193  -0.000351  -0.000067
     12      -0.000583   0.001222  -0.000002
     13      -0.004793   0.000552   0.000242
     14       0.000638  -0.000595  -0.000586
     15       0.004217  -0.001305  -0.000143
     16      -0.090962  -0.000715   0.000242
     17      -0.046430   0.001420   0.000194
     18      -0.000173   0.046023   0.000648
     19       0.002204  -0.015311   0.077073
     20       0.001041   0.024442   0.040196
     21       0.000038  -0.000042   0.000002
     22      -0.000176  -0.000057   0.000019
     23      -0.000258  -0.000188   0.000000
     24       0.000012  -0.000058  -0.000007
     25      -0.000387  -0.000111   0.000111
     26       0.000050   0.000089  -0.000024
     27       0.000011  -0.000089  -0.000012
     28      -0.000173  -0.000722   0.000394
     29       0.000018  -0.000186   0.000130
     30       0.000380   0.000002  -0.000068
     31      -0.000854  -0.000636   0.000698
     32      -0.000183   0.000218  -0.000290
     33       0.000571   0.000434  -0.000553
     34      -0.000148   0.000320  -0.000215
     35       0.000436   0.000182  -0.000369
     36      -0.000055  -0.000796   0.000639
     37       0.006372  -0.003591   0.002160
     38       0.001192   0.001751  -0.001455
     39      -0.000650   0.000885  -0.000698
     40       0.000316  -0.001708   0.000066
     41      -0.001117  -0.001254  -0.000624
     42       0.009378  -0.002951   0.001548
     43       0.056670  -0.001508  -0.008841
     44      -0.003286  -0.004504   0.001848
     45       0.267171  -0.003542  -0.005926
     46       0.622689   0.004787  -0.005959
     47       0.060140  -0.000020  -0.002199
     48      -0.312898  -0.004077   0.006188
     49       0.442184  -0.003154  -0.005918
     50       0.479376  -0.004137  -0.003789
     51       0.002640  -0.288683  -0.320790
     52      -0.005162  -0.434802  -0.464820
     53      -0.008512  -0.429982  -0.469500
     54      -0.003153  -0.335528   0.314131
     55      -0.008865   0.646954  -0.590006
     56       0.000772   0.092228  -0.077507


-----------
IR SPECTRUM
-----------

 Mode    freq (cm**-1)   T**2         TX         TY         TZ
-------------------------------------------------------------------
   6:        66.48    2.151347  (  0.909690   1.061573  -0.443705)
   7:        70.77    1.474865  (  0.698984  -0.730994  -0.672260)
   8:       121.94    4.212543  (  0.202475   0.417409  -1.999329)
   9:       161.07    1.722923  ( -0.522935   0.549477   1.071232)
  10:       303.91    4.222153  (  0.083431  -0.389846  -2.015741)
  11:       351.47    0.320708  (  0.373895   0.153793  -0.396559)
  12:       423.98    0.461973  (  0.436015  -0.159211  -0.496503)
  13:       462.31    0.760417  (  0.354882  -0.150374  -0.782217)
  14:       648.73   13.797191  (  3.700655  -0.152102   0.281445)
  15:       742.74    1.632920  (  0.146182   1.248017  -0.232390)
  16:       789.69    7.553732  (  0.282122  -0.681316   2.647630)
  17:       841.52   15.876115  (  3.843748  -0.488401   0.929076)
  18:       872.93    4.283011  ( -1.186032  -0.345640  -1.660383)
  19:       916.75   11.099698  ( -1.572031   1.760520  -2.351379)
  20:       939.43    1.396989  ( -0.047799  -0.922199  -0.737736)
  21:       961.47    9.245117  ( -1.421706   0.599716  -2.619964)
  22:       989.86   45.886630  (  6.690242   0.044494   1.060805)
  23:      1008.06   10.260713  ( -1.945382  -1.210390   2.238562)
  24:      1020.40   83.734578  (  3.723965   3.812033  -7.438754)
  25:      1029.37   14.775882  (  3.802492   0.070223  -0.558573)
  26:      1066.62    9.268894  ( -2.555232  -0.307493   1.626386)
  27:      1073.48   13.205122  (  0.959107  -0.043746  -3.504757)
  28:      1159.27    2.176636  (  0.550986  -1.336569  -0.294338)
  29:      1184.05    1.854747  (  0.173527  -0.362581   1.301219)
  30:      1201.99    0.038841  ( -0.116362  -0.108374  -0.116432)
  31:      1246.87    2.714392  (  0.124279   0.794945   1.437710)
  32:      1262.87    2.895330  ( -0.692085   1.159835   1.034955)
  33:      1271.29    6.576263  ( -1.310607   1.702609  -1.399891)
  34:      1285.34    2.285441  ( -0.538014   0.363319   1.365277)
  35:      1319.93    3.976626  ( -0.663306  -0.597958   1.783002)
  36:      1331.85    1.142706  ( -0.311025  -0.960575   0.351091)
  37:      1369.21    0.978922  (  0.879616   0.092835   0.443372)
  38:      1438.40    1.958539  ( -0.101056   0.439890   1.324697)
  39:      1453.45    5.826258  ( -0.253273  -1.539106   1.842081)
  40:      1465.01    3.032776  (  1.413366   0.560231   0.849302)
  41:      1481.91   18.323307  (  2.590369   3.315964   0.785926)
  42:      1496.84   10.165223  (  2.203256   0.634402  -2.215495)
  43:      1632.38   59.897854  (  5.629694  -2.517342   4.676258)
  44:      1730.13    4.735015  (  0.047772   0.418787  -2.134795)
  45:      3015.53   25.775281  ( -2.562329  -0.729934  -4.321683)
  46:      3042.57    8.960578  ( -1.565259  -2.013079   1.567818)
  47:      3081.38    4.514665  (  0.120472  -1.993271   0.725964)
  48:      3101.52    5.452340  (  0.517006  -2.216192   0.523008)
  49:      3151.73    9.610172  (  0.217156  -3.082612   0.246006)
  50:      3159.07    0.083228  ( -0.157530  -0.107164   0.216629)
  51:      3171.12    2.670788  ( -1.350967  -0.259507   0.882231)
  52:      3187.78    0.644724  ( -0.005197  -0.489164   0.636723)
  53:      3251.35    2.148349  ( -0.119899   1.403256   0.406012)
  54:      3272.70    5.294489  ( -0.030941   2.112207   0.912202)
  55:      3514.29  101.518493  ( -7.821057   1.838924  -6.080125)
  56:      3619.08  123.168036  ( -0.306196  -9.475528  -5.769631)

The first frequency considered to be a vibration is 6
The total number of vibrations considered is 51


--------------------------
THERMOCHEMISTRY AT 298.15K
--------------------------

Temperature         ... 298.15 K
Pressure            ... 1.00 atm
Total Mass          ... 98.17 AMU

Throughout the following assumptions are being made:
  (1) The electronic state is orbitally nondegenerate
  (2) There are no thermally accessible electronically excited states
  (3) Hindered rotations indicated by low frequency modes) are not
      treated as such but are treated as vibrations and this may
      case some error
  (4) All equations used are the standard statistical mechanics
      equations for an ideal gas
  (5) All vibrations are strinctly harmonic


------------
INNER ENERGY
------------

The inner energy is: U= E(el) + E(ZPE) + E(vib) + E(rot) + E(trans)
    E(el)   - is the total energy from the electronic structure calculation
              = E(kin-el) + E(nuc-el) + E(el-el) + E(nuc-nuc)
    E(ZPE)  - the the zero temperature vibrational energy from the frequency calculation
    E(vib)  - the the finite temperature correction to E(ZPE) due to population
              of excietd vibrational states
    E(rot)  - is the rotational thermal energy
    E(trans)- is the translational thermal energy

Summary of contributions to the inner energy U:
Electronic energy                ...   -290.06705336 Eh
Zero point energy                ...      0.17487642 Eh     109.74 kcal/mol
Thermal vibrational correction   ...      0.00517042 Eh       3.24 kcal/mol
Thermal rotational correction    ...      0.00141627 Eh       0.89 kcal/mol
Thermal translational correction ...      0.00141627 Eh       0.89 kcal/mol
-----------------------------------------------------------------------
Total thermal energy                   -289.88417398 Eh


Summary of corrections to the electronic energy:
(perhaps to be used in another calculation)
Total thermal correction                  0.00800296 Eh       5.02 kcal/mol
Non-thermal (ZPE) correction              0.17487642 Eh     109.74 kcal/mol
-----------------------------------------------------------------------
Total correction                          0.18287938 Eh     114.76 kcal/mol


--------
ENTHALPY
--------

The enthalpy is H = U + kB*T
                kB is Boltzmann's constant
Total free energy                 ...   -289.88417398 Eh 
Thermal Enthalpy correction       ...      0.00094421 Eh       0.59 kcal/mol
-----------------------------------------------------------------------
Total Enthalpy                    ...   -289.88322977 Eh


-------
ENTROPY
-------

The entropy contributions are T*S = T*(S(el)+S(vib)+S(rot)+S(trans)
     S(el)   - electronic entropy
     S(vib)  - vibrational entropy
     S(rot)  - rotational entropy
     S(trans)- translational entropy
The entropies will be listed as mutliplied by the temperature to get
units of energy

Electronic entropy                ...      0.00000000 Eh      0.00 kcal/mol
Vibrational entropy               ...      0.00980300 Eh      6.15 kcal/mol
Rotational entropy                ...      0.01219515 Eh      7.65 kcal/mol
Translational entropy             ...      0.01884507 Eh     11.83 kcal/mol
-----------------------------------------------------------------------
Final entropy term                ...      0.04084322 Eh     25.63 kcal/mol


CAUTION: The rotational entropy is not quite correctly treated here
         because it includes a symmetry number that is not yet correctly
         implemented in ORCA!
For a nonlinear molecule the correct rotational entropy is:
    S(rot) = R*(ln(qrot/sn)+1.5)
    R    = 8.31441 J/mol/K = 1.987191683e-3 kcal/mol/K
    qrot = 272318.5964642
    sn is the rotational symmetry number. We have assumed 3 here
       if it is different for your molecule then you should correct
       the printed rotational entropy by manually evaluating the equation
       as given above

For convenience we print out the resulting values for sn=1 - 12:
 sn= 1  qrot/sn=  272318.5965 T*S(rot)=     8.30 kcal/mol T*S(tot)=    26.28 kcal/mol
 sn= 2  qrot/sn=  136159.2982 T*S(rot)=     7.89 kcal/mol T*S(tot)=    25.87 kcal/mol
 sn= 3  qrot/sn=   90772.8655 T*S(rot)=     7.65 kcal/mol T*S(tot)=    25.63 kcal/mol
 sn= 4  qrot/sn=   68079.6491 T*S(rot)=     7.48 kcal/mol T*S(tot)=    25.46 kcal/mol
 sn= 5  qrot/sn=   54463.7193 T*S(rot)=     7.35 kcal/mol T*S(tot)=    25.33 kcal/mol
 sn= 6  qrot/sn=   45386.4327 T*S(rot)=     7.24 kcal/mol T*S(tot)=    25.22 kcal/mol
 sn= 7  qrot/sn=   38902.6566 T*S(rot)=     7.15 kcal/mol T*S(tot)=    25.13 kcal/mol
 sn= 8  qrot/sn=   34039.8246 T*S(rot)=     7.07 kcal/mol T*S(tot)=    25.05 kcal/mol
 sn= 9  qrot/sn=   30257.6218 T*S(rot)=     7.00 kcal/mol T*S(tot)=    24.98 kcal/mol
 sn=10  qrot/sn=   27231.8596 T*S(rot)=     6.94 kcal/mol T*S(tot)=    24.92 kcal/mol
 sn=11  qrot/sn=   24756.2360 T*S(rot)=     6.88 kcal/mol T*S(tot)=    24.86 kcal/mol
 sn=12  qrot/sn=   22693.2164 T*S(rot)=     6.83 kcal/mol T*S(tot)=    24.81 kcal/mol


-------------------
GIBBS FREE ENTHALPY
-------------------

The Gibbs free enthalpy is G = H - T*S

Total enthalpy                    ...   -289.88322977 Eh 
Total entropy correction          ...     -0.04084322 Eh    -25.63 kcal/mol
-----------------------------------------------------------------------
Final Gibbs free enthalpy         ...   -289.92407299 Eh

For completeness - the Gibbs free enthalpy minus the electronic energy
G-E(el)                           ...      0.14298037 Eh     89.72 kcal/mol


Timings for individual modules:

Sum of individual times         ...     2476.381 sec (=  41.273 min)
GTO integral calculation        ...       10.742 sec (=   0.179 min)   0.4 %
SCF iterations                  ...      273.301 sec (=   4.555 min)  11.0 %
SCF Gradient evaluation         ...      140.410 sec (=   2.340 min)   5.7 %
Geometry relaxation             ...        0.307 sec (=   0.005 min)   0.0 %
Analytical frequency calculation...     2051.621 sec (=  34.194 min)  82.8 %
                             ****ORCA TERMINATED NORMALLY****
TOTAL RUN TIME: 0 days 0 hours 41 minutes 18 seconds 166 msec
