
                                 *****************
                                 * O   R   C   A *
                                 *****************

           --- An Ab Initio, DFT and Semiempirical electronic structure package ---

                  #######################################################
                  #                        -***-                        #
                  #  Department of molecular theory and spectroscopy    #
                  #              Directorship: Frank Neese              #
                  # Max Planck Institute for Chemical Energy Conversion #
                  #                  D-45470 Muelheim/Ruhr              #
                  #                       Germany                       #
                  #                                                     #
                  #                  All rights reserved                #
                  #                        -***-                        #
                  #######################################################


                         Program Version 3.0.3 - RELEASE   -


 With contributions from (in alphabetic order):
   Ute Becker             : Parallelization
   Dmytro Bykov           : SCF Hessian
   Dmitry Ganyushin       : Spin-Orbit,Spin-Spin,Magnetic field MRCI
   Andreas Hansen         : Spin unrestricted coupled pair/coupled cluster methods
   Dimitrios Liakos       : Extrapolation schemes; parallel MDCI
   Robert Izsak           : Overlap fitted RIJCOSX, COSX-SCS-MP3
   Christian Kollmar      : KDIIS, OOCD, Brueckner-CCSD(T), CCSD density
   Simone Kossmann        : Meta GGA functionals, TD-DFT gradient, OOMP2, MP2 Hessian
   Taras Petrenko         : DFT Hessian,TD-DFT gradient, ASA and ECA modules, normal mode analysis, Resonance Raman, ABS, FL, XAS/XES, NRVS
   Christoph Reimann      : Effective Core Potentials
   Michael Roemelt        : Restricted open shell CIS
   Christoph Riplinger    : Improved optimizer, TS searches, QM/MM, DLPNO-CCSD
   Barbara Sandhoefer     : DKH picture change effects
   Igor Schapiro          : Molecular dynamics
   Kantharuban Sivalingam : CASSCF convergence, NEVPT2
   Boris Wezisla          : Elementary symmetry handling
   Frank Wennmohs         : Technical directorship


 We gratefully acknowledge several colleagues who have allowed us to
 interface, adapt or use parts of their codes:
   Stefan Grimme, W. Hujo, H. Kruse, T. Risthaus : VdW corrections, initial TS optimization,
                                                   DFT functionals, gCP
   Ed Valeev                                     : LibInt (2-el integral package), F12 methods
   Garnet Chan, S. Sharma, R. Olivares           : DMRG
   Ulf Ekstrom                                   : XCFun DFT Library
   Mihaly Kallay                                 : mrcc  (arbitrary order and MRCC methods)
   Andreas Klamt, Michael Diedenhofen            : otool_cosmo (COSMO solvation model)
   Frank Weinhold                                : gennbo (NPA and NBO analysis)
   Christopher J. Cramer and Donald G. Truhlar   : smd solvation model


 Your calculation uses the libint2 library for the computation of 2-el integrals
 For citations please refer to: http://libint.valeyev.net

 This ORCA versions uses:
   CBLAS   interface :  Fast vector & matrix operations
   LAPACKE interface :  Fast linear algebra routines
   SCALAPACK package :  Parallel linear algebra routines


Your calculation utilizes the basis: Ahlrichs-TZV
Cite in your paper:
H - Kr: A. Schaefer, H. Horn and R. Ahlrichs, J. Chem. Phys. 97, 2571 (1992).

The def2-TZV basis will be loaded
Cite in your paper:
 	F. Weigend, R. Ahlrichs, Phys. Chem. Chem. Phys. 2005, 7, 3297.

================================================================================
                                        WARNINGS
                       Please study these warnings very carefully!
================================================================================
Now building the actual basis set
WARNING: Geometry optimizations can change the point-group symmetry!

WARNING: Geometry Optimization
  ===> : Switching off AutoStart
         For restart on a previous wavefunction, please use MOREAD


INFO   : the flag for use of LIBINT has been found!

================================================================================
                                       INPUT FILE
================================================================================
NAME = 2137_+.inp
|  1> ! NORI PBE0 def2-TZVP UseSym TightOPT Freq TightSCF Grid3 FinalGrid5 XYZFile
|  2> % pal
|  3>     nprocs 8
|  4> end
|  5> %method
|  6>     SymThresh 5.0e-2
|  7> end
|  8> % geom 
|  9>     MaxIter 10
| 10> end 
| 11> % maxcore 2000
| 12> % output
| 13>     printlevel mini
| 14>     print[ P_Basis ] 0
| 15>     print[ P_SCFInfo ] 1
| 16>     print[ P_SCFIterInfo ] 1
| 17>     print[ P_OrbEn ] 0
| 18>     print[ P_Cartesian ] 0
| 19> end
| 20> % elprop
| 21>     Dipole false
| 22> end
| 23> *xyz 1 1
| 24>  C        2.9929730261     0.8281653399    -1.6482734763 
| 25>  C        2.7199230271     0.1041217543    -0.3348200441 
| 26>  C        1.2577058455     0.2456510741     0.0672457107 
| 27>  C        3.1497873698    -1.3800095604    -0.3463583102 
| 28>  C        2.5289273410    -2.1967671982    -1.4743634821 
| 29>  C        4.6658112190    -1.4574266855    -0.3738353774 
| 30>  N        5.1347812191    -2.8858669166    -0.2625095312 
| 31>  H        4.0401074587     0.7782039713    -1.9600688077 
| 32>  H        2.7463835039     1.8860113897    -1.5444819950 
| 33>  H        2.3781073325     0.4349780832    -2.4614796076 
| 34>  H        3.3177419495     0.5895600966     0.4479753910 
| 35>  H        0.5844160291    -0.1693321679    -0.6867642993 
| 36>  H        1.0008738521     1.3002623597     0.1785155498 
| 37>  H        1.0476160489    -0.2476419085     1.0194714604 
| 38>  H        2.8172128700    -1.8004343517     0.6138757804 
| 39>  H        2.9302692760    -1.9136532276    -2.4512377540 
| 40>  H        1.4499598164    -2.0463250314    -1.5100215823 
| 41>  H        2.6643623769    -3.2772228953    -1.3461537029 
| 42>  H        5.1202309403    -0.9181694519     0.4583516039 
| 43>  H        5.0800818525    -1.0777807528    -1.3089085439 
| 44>  H        4.8215050229    -3.3028352241     0.6166685388 
| 45>  H        6.1526367537    -2.9610510244    -0.3033065250 
| 46>  H        4.7412758689    -3.4447476724    -1.0230609957 
| 47> *
| 48> 
| 49>                          ****END OF INPUT****
================================================================================

The point group is C1 - hence turning off symmetry
If this is a round-off problem, please increase the symmetry
        detection tolerance (%method SymThresh)


                       *****************************
                       * Geometry Optimization Run *
                       *****************************

Geometry optimization settings:
Update method            Update   .... BFGS
Choice of coordinates    CoordSys .... Redundant Internals
Initial Hessian          InHess   .... Almoef's Model

Convergence Tolerances:
Energy Change            TolE     ....  1.0000e-06 Eh
Max. Gradient            TolMAXG  ....  1.0000e-04 Eh/bohr
RMS Gradient             TolRMSG  ....  3.0000e-05 Eh/bohr
Max. Displacement        TolMAXD  ....  1.0000e-03 bohr
RMS Displacement         TolRMSD  ....  6.0000e-04 bohr

------------------------------------------------------------------------------
                        ORCA OPTIMIZATION COORDINATE SETUP
------------------------------------------------------------------------------

The optimization will be done in new redundant internal coordinates
Making redundant internal coordinates   ...  (new redundants) done
Evaluating the initial hessian          ...  (Almloef) done
Evaluating the coordinates              ...  done
Calculating the B-matrix                .... done
Calculating the G-matrix                .... done
Diagonalizing the G-matrix              .... done
Small eigenvalue found = 2.431e-02
The first mode is                       ....   55
The number of degrees of freedom        ....   63

    -----------------------------------------------------------------
                    Redundant Internal Coordinates


    -----------------------------------------------------------------
         Definition                    Initial Value    Approx d2E/dq
    -----------------------------------------------------------------
      1. B(C   1,C   0)                  1.5245         0.381266   
      2. B(C   2,C   1)                  1.5231         0.383196   
      3. B(C   3,C   1)                  1.5452         0.353320   
      4. B(C   4,C   3)                  1.5248         0.380807   
      5. B(C   5,C   3)                  1.5182         0.390056   
      6. B(N   6,C   5)                  1.5076         0.363329   
      7. B(H   7,C   0)                  1.0937         0.355225   
      8. B(H   8,C   0)                  1.0912         0.358576   
      9. B(H   9,C   0)                  1.0927         0.356566   
     10. B(H  10,C   1)                  1.0981         0.349553   
     11. B(H  11,C   2)                  1.0927         0.356505   
     12. B(H  12,C   2)                  1.0911         0.358618   
     13. B(H  13,C   2)                  1.0928         0.356416   
     14. B(H  14,C   3)                  1.0997         0.347452   
     15. B(H  15,C   4)                  1.0934         0.355637   
     16. B(H  16,C   4)                  1.0900         0.360115   
     17. B(H  17,C   4)                  1.0964         0.351690   
     18. B(H  18,C   5)                  1.0908         0.359052   
     19. B(H  19,C   5)                  1.0909         0.358881   
     20. B(H  20,N   6)                  1.0222         0.413694   
     21. B(H  21,N   6)                  1.0214         0.414894   
     22. B(H  22,N   6)                  1.0226         0.413193   
     23. A(H   7,C   0,H   8)          106.7244         0.290025   
     24. A(C   1,C   0,H   7)          113.2917         0.324678   
     25. A(H   8,C   0,H   9)          107.0063         0.290196   
     26. A(C   1,C   0,H   9)          111.6863         0.324880   
     27. A(H   7,C   0,H   9)          108.0680         0.289769   
     28. A(C   1,C   0,H   8)          109.7564         0.325180   
     29. A(C   2,C   1,C   3)          110.9961         0.361476   
     30. A(C   2,C   1,H  10)          107.0615         0.324090   
     31. A(C   0,C   1,C   3)          113.5736         0.361164   
     32. A(C   0,C   1,H  10)          107.8619         0.323821   
     33. A(C   0,C   1,C   2)          110.8098         0.366211   
     34. A(C   3,C   1,H  10)          106.1694         0.319810   
     35. A(H  12,C   2,H  13)          107.5890         0.290182   
     36. A(C   1,C   2,H  13)          111.8789         0.325127   
     37. A(C   1,C   2,H  12)          110.0422         0.325456   
     38. A(C   1,C   2,H  11)          111.9680         0.325140   
     39. A(H  11,C   2,H  13)          108.1423         0.289913   
     40. A(H  11,C   2,H  12)          107.0013         0.290194   
     41. A(C   4,C   3,C   5)          111.4618         0.367250   
     42. A(C   5,C   3,H  14)          107.3543         0.324714   
     43. A(C   4,C   3,H  14)          108.5436         0.323437   
     44. A(C   1,C   3,H  14)          106.0540         0.319496   
     45. A(C   1,C   3,C   5)          109.0809         0.362572   
     46. A(C   1,C   3,C   4)          114.0003         0.361090   
     47. A(H  15,C   4,H  17)          108.3179         0.289197   
     48. A(C   3,C   4,H  17)          113.0198         0.324082   
     49. A(H  15,C   4,H  16)          107.3605         0.290272   
     50. A(C   3,C   4,H  16)          110.6913         0.325344   
     51. A(C   3,C   4,H  15)          111.8876         0.324676   
     52. A(H  16,C   4,H  17)          105.1953         0.289765   
     53. A(C   3,C   5,N   6)          110.9528         0.362042   
     54. A(H  18,C   5,H  19)          108.8859         0.290552   
     55. A(N   6,C   5,H  19)          105.9563         0.320740   
     56. A(C   3,C   5,H  19)          112.1451         0.326447   
     57. A(N   6,C   5,H  18)          106.4090         0.320765   
     58. A(C   3,C   5,H  18)          112.1461         0.326473   
     59. A(H  21,N   6,H  22)          108.2724         0.299023   
     60. A(H  20,N   6,H  22)          107.3864         0.298885   
     61. A(C   5,N   6,H  22)          110.0737         0.325463   
     62. A(H  20,N   6,H  21)          108.0420         0.299081   
     63. A(C   5,N   6,H  21)          112.1342         0.325683   
     64. A(C   5,N   6,H  20)          110.7730         0.325528   
     65. D(C   2,C   1,C   0,H   9)    -59.4421         0.011582   
     66. D(C   2,C   1,C   0,H   8)     59.0651         0.011582   
     67. D(H  10,C   1,C   0,H   8)    -57.8228         0.011582   
     68. D(H  10,C   1,C   0,H   9)   -176.3300         0.011582   
     69. D(C   3,C   1,C   0,H   7)    -56.0218         0.011582   
     70. D(H  10,C   1,C   0,H   7)     61.3546         0.011582   
     71. D(C   2,C   1,C   0,H   7)    178.2425         0.011582   
     72. D(C   3,C   1,C   0,H   8)   -175.1992         0.011582   
     73. D(C   3,C   1,C   0,H   9)     66.2936         0.011582   
     74. D(H  11,C   2,C   1,C   3)    -67.4135         0.011693   
     75. D(H  11,C   2,C   1,H  10)    177.1317         0.011693   
     76. D(H  11,C   2,C   1,C   0)     59.7525         0.011693   
     77. D(H  12,C   2,C   1,C   3)    173.7205         0.011693   
     78. D(H  12,C   2,C   1,H  10)     58.2656         0.011693   
     79. D(H  12,C   2,C   1,C   0)    -59.1136         0.011693   
     80. D(H  13,C   2,C   1,H  10)    -61.2807         0.011693   
     81. D(H  13,C   2,C   1,C   3)     54.1741         0.011693   
     82. D(H  13,C   2,C   1,C   0)   -178.6599         0.011693   
     83. D(H  14,C   3,C   1,C   0)   -174.9931         0.010043   
     84. D(C   5,C   3,C   1,H  10)    -48.6879         0.010043   
     85. D(H  14,C   3,C   1,C   2)    -49.3565         0.010043   
     86. D(C   5,C   3,C   1,C   2)   -164.6952         0.010043   
     87. D(C   5,C   3,C   1,C   0)     69.6682         0.010043   
     88. D(C   4,C   3,C   1,C   2)     70.0087         0.010043   
     89. D(C   4,C   3,C   1,H  10)   -173.9840         0.010043   
     90. D(H  14,C   3,C   1,H  10)     66.6508         0.010043   
     91. D(C   4,C   3,C   1,C   0)    -55.6279         0.010043   
     92. D(H  16,C   4,C   3,C   1)    -49.8171         0.011555   
     93. D(H  15,C   4,C   3,H  14)   -172.1700         0.011555   
     94. D(H  15,C   4,C   3,C   5)    -54.1403         0.011555   
     95. D(H  15,C   4,C   3,C   1)     69.8837         0.011555   
     96. D(H  17,C   4,C   3,H  14)    -49.5746         0.011555   
     97. D(H  17,C   4,C   3,C   5)     68.4551         0.011555   
     98. D(H  17,C   4,C   3,C   1)   -167.5208         0.011555   
     99. D(H  16,C   4,C   3,H  14)     68.1291         0.011555   
    100. D(H  16,C   4,C   3,C   5)   -173.8412         0.011555   
    101. D(H  19,C   5,C   3,H  14)    178.7443         0.012096   
    102. D(H  19,C   5,C   3,C   4)     60.0017         0.012096   
    103. D(H  19,C   5,C   3,C   1)    -66.7569         0.012096   
    104. D(H  18,C   5,C   3,H  14)    -58.3719         0.012096   
    105. D(H  18,C   5,C   3,C   4)   -177.1145         0.012096   
    106. D(H  18,C   5,C   3,C   1)     56.1269         0.012096   
    107. D(N   6,C   5,C   3,H  14)     60.4726         0.012096   
    108. D(N   6,C   5,C   3,C   4)    -58.2700         0.012096   
    109. D(N   6,C   5,C   3,C   1)    174.9714         0.012096   
    110. D(H  22,N   6,C   5,H  19)    -64.0242         0.012126   
    111. D(H  22,N   6,C   5,H  18)   -179.8190         0.012126   
    112. D(H  22,N   6,C   5,C   3)     57.9343         0.012126   
    113. D(H  21,N   6,C   5,H  19)     56.5738         0.012126   
    114. D(H  21,N   6,C   5,H  18)    -59.2210         0.012126   
    115. D(H  21,N   6,C   5,C   3)    178.5323         0.012126   
    116. D(H  20,N   6,C   5,H  19)    177.3638         0.012126   
    117. D(H  20,N   6,C   5,H  18)     61.5690         0.012126   
    118. D(H  20,N   6,C   5,C   3)    -60.6777         0.012126   
    -----------------------------------------------------------------

Number of atoms                         .... 23
Number of degrees of freedom            .... 118

         *************************************************************
         *                GEOMETRY OPTIMIZATION CYCLE   1            *
         *************************************************************


           ************************************************************
           *        Program running with 8 parallel MPI-processes     *
           *              working on a common directory               *
           ************************************************************
           ************************************************************
           *              Shut down parallel processing               *
           ************************************************************


           ************************************************************
           *        Program running with 8 parallel MPI-processes     *
           *              working on a common directory               *
           ************************************************************
------------
SCF SETTINGS
------------
Hamiltonian:
 Density Functional     Method          .... DFT(GTOs)
 Exchange Functional    Exchange        .... PBE
   PBE kappa parameter  XKappa          ....  0.804000
 Correlation Functional Correlation     .... PBE
 LDA part of GGA corr.  LDAOpt          .... PW91-LDA
 Gradients option       PostSCFGGA      .... off
 Hybrid DFT is turned on
   Fraction HF Exchange ScalHFX         ....  0.250000
   Scaling of DF-GGA-X  ScalDFX         ....  0.750000
   Scaling of DF-GGA-C  ScalDFC         ....  1.000000
   Scaling of DF-LDA-C  ScalLDAC        ....  1.000000
   Perturbative correction              ....  0.000000
   NL short-range parameter             ....  6.900000


General Settings:
 Integral files         IntName         .... 2137_+
 Hartree-Fock type      HFTyp           .... RHF
 Total Charge           Charge          ....    1
 Multiplicity           Mult            ....    1
 Number of Electrons    NEL             ....   58
 Basis Dimension        Dim             ....  313
 Nuclear Repulsion      ENuc            ....    348.7419388642 Eh

Convergence Acceleration:
 DIIS                   CNVDIIS         .... on
   Start iteration      DIISMaxIt       ....    12
   Startup error        DIISStart       ....  0.200000
   # of expansion vecs  DIISMaxEq       ....     5
   Bias factor          DIISBfac        ....   1.050
   Max. coefficient     DIISMaxC        ....  10.000
 Newton-Raphson         CNVNR           .... off
 SOSCF                  CNVSOSCF        .... on
   Start iteration      SOSCFMaxIt      ....   150
   Startup grad/error   SOSCFStart      ....  0.003300
 Level Shifting         CNVShift        .... on
   Level shift para.    LevelShift      ....    0.2500
   Turn off err/grad.   ShiftErr        ....    0.0010
 Zerner damping         CNVZerner       .... off
 Static damping         CNVDamp         .... on
   Fraction old density DampFac         ....    0.7000
   Max. Damping (<1)    DampMax         ....    0.9800
   Min. Damping (>=0)   DampMin         ....    0.0000
   Turn off err/grad.   DampErr         ....    0.1000
 Fernandez-Rico         CNVRico         .... off

SCF Procedure:
 Maximum # iterations   MaxIter         ....   125
 SCF integral mode      SCFMode         .... Direct
   Integral package                     .... LIBINT
 Reset frequeny         DirectResetFreq ....    20
 Integral Threshold     Thresh          ....  2.500e-11 Eh
 Primitive CutOff       TCut            ....  2.500e-12 Eh

Convergence Tolerance:
 Convergence Check Mode ConvCheckMode   .... Total+1el-Energy
 Energy Change          TolE            ....  1.000e-08 Eh
 1-El. energy change                    ....  1.000e-05 Eh
 Orbital Gradient       TolG            ....  1.000e-05
 Orbital Rotation angle TolX            ....  1.000e-05
 DIIS Error             TolErr          ....  5.000e-07


Diagonalization of the overlap matrix:
Smallest eigenvalue                        ... 1.106e-04
Time for diagonalization                   ...    0.305 sec
Threshold for overlap eigenvalues          ... 1.000e-08
Number of eigenvalues below threshold      ... 0
Time for construction of square roots      ...    0.027 sec
Total time needed                          ...    0.332 sec

-------------------
DFT GRID GENERATION
-------------------

General Integration Accuracy     IntAcc      ...  4.340
Radial Grid Type                 RadialGrid  ... Gauss-Chebyshev
Angular Grid (max. acc.)         AngularGrid ... Lebedev-194
Angular grid pruning method      GridPruning ... 3 (G Style)
Weight generation scheme         WeightScheme... Becke
Basis function cutoff            BFCut       ...    1.0000e-11
Integration weight cutoff        WCut        ...    1.0000e-14
Grids for H and He will be reduced by one unit

# of grid points (after initial pruning)     ...  47458 (   0.0 sec)
# of grid points (after weights+screening)   ...  42510 (   0.1 sec)
nearest neighbour list constructed           ...    0.0 sec
Grid point re-assignment to atoms done       ...    0.0 sec
Grid point division into batches done        ...    0.1 sec
Reduced shell lists constructed in    0.2 sec

Total number of grid points                  ...    42510
Total number of batches                      ...      673
Average number of points per batch           ...       63
Average number of grid points per atom       ...     1848
Average number of shells per batch           ...   111.64 (79.18%)
Average number of basis functions per batch  ...   255.83 (81.73%)
Average number of large shells per batch     ...    90.66 (81.21%)
Average number of large basis fcns per batch ...   207.85 (81.25%)
Maximum spatial batch extension              ...   3.47,  2.31,  2.59 au
Average spatial batch extension              ...   0.16,  0.15,  0.15 au

Time for grid setup =    0.858 sec

Loading Hartree-Fock densities                     ... done
Calculating cut-offs                               ... done
Setting up the integral package                    ... done
Initializing the effective Hamiltonian             ... done
Starting the Coulomb interaction                   ... done (   0.1 sec)
Reading the grid                                   ... done
Mapping shells                                     ... done
Starting the XC term evaluation                    ... done (   0.5 sec)
  promolecular density results
     # of electrons  =     58.992440213
     EX              =    -42.012965242
     EC              =     -1.928775595
     EX+EC           =    -43.941740837
Transforming the Hamiltonian                       ... done (   0.0 sec)
Diagonalizing the Hamiltonian                      ... done (   0.2 sec)
Back transforming the eigenvectors                 ... done (   0.0 sec)
Now organizing SCF variables                       ... done
--------------
SCF ITERATIONS
--------------
ITER       Energy         Delta-E        Max-DP      RMS-DP      [F,P]     Damp
               ***  Starting incremental Fock matrix formation  ***
  0   -292.3060291508   0.000000000000 0.03340425  0.00087455  0.1818598 0.7000
  1   -292.4112308158  -0.105201665087 0.03181895  0.00067493  0.0957134 0.7000
                               ***Turning on DIIS***
  2   -292.4560741426  -0.044843326701 0.05831989  0.00123258  0.0380121 0.0000
  3   -292.5201403249  -0.064066182334 0.02035375  0.00044313  0.0524895 0.0000
  4   -292.5375306004  -0.017390275547 0.00724909  0.00014152  0.0084625 0.0000
                      *** Initiating the SOSCF procedure ***
                           *** Shutting down DIIS ***
                      *** Re-Reading the Fockian *** 
                      *** Removing any level shift *** 
ITER      Energy       Delta-E        Grad      Rot      Max-DP    RMS-DP
  5   -292.53814715  -0.0006165451  0.000422  0.000422  0.002297  0.000060
               *** Restarting incremental Fock matrix formation ***
  6   -292.53818488  -0.0000377315  0.000156  0.000382  0.001475  0.000037
  7   -292.53818666  -0.0000017809  0.000128  0.000103  0.000275  0.000008
  8   -292.53818898  -0.0000023252  0.000014  0.000028  0.000119  0.000003
  9   -292.53818900  -0.0000000178  0.000016  0.000013  0.000020  0.000001
 10   -292.53818901  -0.0000000139  0.000003  0.000005  0.000016  0.000000
                 **** Energy Check signals convergence ****
              ***Rediagonalizing the Fockian in SOSCF/NRSCF***

               *****************************************************
               *                     SUCCESS                       *
               *           SCF CONVERGED AFTER  11 CYCLES          *
               *****************************************************

Setting up the final grid:

General Integration Accuracy     IntAcc      ...  5.010
Radial Grid Type                 RadialGrid  ... Gauss-Chebyshev
Angular Grid (max. acc.)         AngularGrid ... Lebedev-434
Angular grid pruning method      GridPruning ... 3 (G Style)
Weight generation scheme         WeightScheme... Becke
Basis function cutoff            BFCut       ...    1.0000e-11
Integration weight cutoff        WCut        ...    1.0000e-14
Grids for H and He will be reduced by one unit

# of grid points (after initial pruning)     ... 181850 (   0.0 sec)
# of grid points (after weights+screening)   ... 160679 (   0.3 sec)
nearest neighbour list constructed           ...    0.0 sec
Grid point re-assignment to atoms done       ...    0.1 sec
Grid point division into batches done        ...    1.2 sec
Reduced shell lists constructed in    1.6 sec

Total number of grid points                  ...   160679
Total number of batches                      ...     2523
Average number of points per batch           ...       63
Average number of grid points per atom       ...     6986
Average number of shells per batch           ...   111.08 (78.78%)
Average number of basis functions per batch  ...   256.02 (81.80%)
Average number of large shells per batch     ...    89.33 (80.42%)
Average number of large basis fcns per batch ...   204.83 (80.01%)
Maximum spatial batch extension              ...   2.32,  2.76,  2.39 au
Average spatial batch extension              ...   0.10,  0.10,  0.10 au

Final grid set up in    2.3 sec
Final integration                            ... done (   1.3 sec)
Change in XC energy                          ...     0.000570647
Integrated number of electrons               ...    57.999966668
Previous integrated no of electrons          ...    58.000812406
Total Energy       :         -292.53761837 Eh           -7960.35329 eV
  Last Energy change         ...   -4.0131e-11  Tolerance :   1.0000e-08
  Last MAX-Density change    ...    5.1073e-06  Tolerance :   1.0000e-07
             **** THE GBW FILE WAS UPDATED (2137_+.gbw) ****
             **** DENSITY FILE WAS UPDATED (2137_+.scfp.tmp) ****
             **** ENERGY FILE WAS UPDATED (2137_+.en.tmp) ****
Total SCF time: 0 days 0 hours 1 min 52 sec 
           ************************************************************
           *              Shut down parallel processing               *
           ************************************************************

-------------------------   --------------------
FINAL SINGLE POINT ENERGY      -292.537618367500
-------------------------   --------------------



           ************************************************************
           *        Program running with 8 parallel MPI-processes     *
           *              working on a common directory               *
           ************************************************************
------------------------------------------------------------------------------
                         ORCA SCF GRADIENT CALCULATION
------------------------------------------------------------------------------

Gradient of the Kohn-Sham DFT energy:
Kohn-Sham wavefunction type      ... RKS
Hartree-Fock exchange scaling    ...    0.250
Number of operators              ...    1
Number of atoms                  ...   23
Basis set dimensions             ...  313
Integral neglect threshold       ... 2.5e-11
Integral primitive cutoff        ... 2.5e-12

Nuclear repulsion gradient       ... done
One Electron Gradient            ... done
Pre-screening matrix             ... done
Starting the two electron gradient:
Two electron gradient done
Exchange-correlation gradient    ... done

------------------
CARTESIAN GRADIENT
------------------

   1   C   :   -0.000178279    0.000161811   -0.000070172
   2   C   :   -0.000139731    0.000187916   -0.000021542
   3   C   :    0.000090694   -0.000091293    0.000107162
   4   C   :    0.000345697   -0.000146374   -0.000121752
   5   C   :    0.000037122    0.000372048    0.000076500
   6   C   :   -0.000194660   -0.000131704    0.000192217
   7   N   :    0.000011589    0.000089080   -0.000287182
   8   H   :    0.000072342   -0.000008530    0.000254817
   9   H   :    0.000009933   -0.000045436   -0.000016031
  10   H   :    0.000079724   -0.000090855   -0.000063037
  11   H   :    0.000039083   -0.000032906    0.000076731
  12   H   :   -0.000159672   -0.000011523   -0.000058234
  13   H   :   -0.000006149   -0.000022656    0.000060822
  14   H   :   -0.000033881   -0.000037696   -0.000123550
  15   H   :   -0.000089669   -0.000002941    0.000026667
  16   H   :   -0.000021955   -0.000073280   -0.000006651
  17   H   :    0.000001739   -0.000065222   -0.000184706
  18   H   :   -0.000057759   -0.000072159    0.000262905
  19   H   :    0.000031867    0.000018189   -0.000005460
  20   H   :    0.000098225    0.000028933   -0.000070686
  21   H   :   -0.000013514    0.000083743   -0.000045370
  22   H   :    0.000077132    0.000001623    0.000126894
  23   H   :    0.000000121   -0.000110768   -0.000110343

Norm of the cartesian gradient     ...    0.000992228
RMS gradient                       ...    0.000119450
MAX gradient                       ...    0.000372048

-------
TIMINGS
-------

Total SCF gradient time            ...       48.237 sec

One electron gradient       ....       0.298 sec  (  0.6%)
Prescreening matrices       ....       0.454 sec  (  0.9%)
Two electron gradient       ....      40.658 sec  ( 84.3%)
XC gradient                 ....       5.165 sec  ( 10.7%)
           ************************************************************
           *              Shut down parallel processing               *
           ************************************************************
------------------------------------------------------------------------------
                         ORCA GEOMETRY RELAXATION STEP
------------------------------------------------------------------------------

Reading the OPT-File                    .... done
Getting information on internals        .... done
Copying old internal coords+grads       .... done
Making the new internal coordinates     .... (new redundants).... done
Validating the new internal coordinates .... (new redundants).... done
Calculating the B-matrix                .... done
Calculating the G,G- and P matrices     .... done
Transforming gradient to internals      .... done
Projecting the internal gradient        .... done
Number of atoms                         ....  23
Number of internal coordinates          .... 118
Current Energy                          ....  -292.537618367 Eh
Current gradient norm                   ....     0.000992228 Eh/bohr
Maximum allowed component of the step   ....  0.300
Current trust radius                    ....  0.300
Evaluating the initial hessian          ....  (Almloef) done
Projecting the Hessian                  .... done
Forming the augmented Hessian           .... done
Diagonalizing the augmented Hessian     .... done
Last element of RFO vector              ....  0.999881707
Lowest eigenvalues of augmented Hessian:
 -0.000006071  0.010044375  0.011555050  0.011581695  0.011693301
Length of the computed step             ....  0.015382724
The final length of the internal step   ....  0.015382724
Converting the step to cartesian space:
 Initial RMS(Int)=    0.0014160945
Transforming coordinates:
 Iter   0:  RMS(Cart)=    0.0044764645 RMS(Int)=    0.0014161274
 Iter   1:  RMS(Cart)=    0.0000063994 RMS(Int)=    0.0000030224
 Iter   2:  RMS(Cart)=    0.0000000192 RMS(Int)=    0.0000000071
done
Storing new coordinates                 .... done

                                .--------------------.
          ----------------------|Geometry convergence|---------------------
          Item                value                 Tolerance   Converged
          -----------------------------------------------------------------
          RMS gradient        0.00009407            0.00003000      NO
          MAX gradient        0.00032115            0.00010000      NO
          RMS step            0.00141609            0.00060000      NO
          MAX step            0.00483609            0.00100000      NO
          ....................................................
          Max(Bonds)      0.0005      Max(Angles)    0.06
          Max(Dihed)        0.28      Max(Improp)    0.00
          -----------------------------------------------------------------

The optimization has not yet converged - more geometry cycles are needed


    ---------------------------------------------------------------------------
                         Redundant Internal Coordinates
                            (Angstroem and degrees)

        Definition                    Value    dE/dq     Step     New-Value
    ----------------------------------------------------------------------------
     1. B(C   1,C   0)                1.5245 -0.000053  0.0001    1.5245   
     2. B(C   2,C   1)                1.5231  0.000090 -0.0001    1.5230   
     3. B(C   3,C   1)                1.5452 -0.000191  0.0003    1.5455   
     4. B(C   4,C   3)                1.5248 -0.000159  0.0002    1.5250   
     5. B(C   5,C   3)                1.5182 -0.000152  0.0002    1.5185   
     6. B(N   6,C   5)                1.5076 -0.000321  0.0005    1.5080   
     7. B(H   7,C   0)                1.0937  0.000224 -0.0003    1.0934   
     8. B(H   8,C   0)                1.0912 -0.000006  0.0000    1.0912   
     9. B(H   9,C   0)                1.0927  0.000094 -0.0001    1.0925   
    10. B(H  10,C   1)                1.0981 -0.000011  0.0000    1.0981   
    11. B(H  11,C   2)                1.0927  0.000052 -0.0001    1.0927   
    12. B(H  12,C   2)                1.0911 -0.000061  0.0001    1.0912   
    13. B(H  13,C   2)                1.0928 -0.000023  0.0000    1.0928   
    14. B(H  14,C   3)                1.0997  0.000084 -0.0001    1.0996   
    15. B(H  15,C   4)                1.0934  0.000013 -0.0000    1.0934   
    16. B(H  16,C   4)                1.0900  0.000167 -0.0002    1.0897   
    17. B(H  17,C   4)                1.0964  0.000262 -0.0004    1.0960   
    18. B(H  18,C   5)                1.0908  0.000018 -0.0000    1.0908   
    19. B(H  19,C   5)                1.0909  0.000086 -0.0001    1.0908   
    20. B(H  20,N   6)                1.0222  0.000036 -0.0000    1.0222   
    21. B(H  21,N   6)                1.0214  0.000141 -0.0002    1.0213   
    22. B(H  22,N   6)                1.0226  0.000112 -0.0001    1.0224   
    23. A(H   7,C   0,H   8)          106.72  0.000074   -0.02    106.71   
    24. A(C   1,C   0,H   7)          113.29 -0.000201    0.04    113.33   
    25. A(H   8,C   0,H   9)          107.01 -0.000087    0.01    107.02   
    26. A(C   1,C   0,H   9)          111.69  0.000151   -0.03    111.66   
    27. A(H   7,C   0,H   9)          108.07 -0.000008    0.01    108.08   
    28. A(C   1,C   0,H   8)          109.76  0.000072   -0.02    109.74   
    29. A(C   2,C   1,C   3)          111.00  0.000087   -0.03    110.97   
    30. A(C   2,C   1,H  10)          107.06  0.000010   -0.04    107.03   
    31. A(C   0,C   1,C   3)          113.57 -0.000193    0.06    113.63   
    32. A(C   0,C   1,H  10)          107.86 -0.000014    0.02    107.88   
    33. A(C   0,C   1,C   2)          110.81  0.000106   -0.03    110.78   
    34. A(C   3,C   1,H  10)          106.17  0.000006    0.02    106.19   
    35. A(H  12,C   2,H  13)          107.59 -0.000054    0.02    107.61   
    36. A(C   1,C   2,H  13)          111.88  0.000145   -0.03    111.85   
    37. A(C   1,C   2,H  12)          110.04 -0.000091    0.02    110.06   
    38. A(C   1,C   2,H  11)          111.97  0.000188   -0.04    111.93   
    39. A(H  11,C   2,H  13)          108.14 -0.000168    0.03    108.17   
    40. A(H  11,C   2,H  12)          107.00 -0.000038    0.00    107.01   
    41. A(C   4,C   3,C   5)          111.46 -0.000125    0.03    111.50   
    42. A(C   5,C   3,H  14)          107.35  0.000088   -0.02    107.34   
    43. A(C   4,C   3,H  14)          108.54 -0.000067    0.03    108.57   
    44. A(C   1,C   3,H  14)          106.05 -0.000022   -0.01    106.04   
    45. A(C   1,C   3,C   5)          109.08 -0.000053    0.01    109.09   
    46. A(C   1,C   3,C   4)          114.00  0.000182   -0.04    113.96   
    47. A(H  15,C   4,H  17)          108.32 -0.000045    0.02    108.33   
    48. A(C   3,C   4,H  17)          113.02 -0.000054    0.01    113.03   
    49. A(H  15,C   4,H  16)          107.36 -0.000075    0.02    107.38   
    50. A(C   3,C   4,H  16)          110.69  0.000009   -0.01    110.69   
    51. A(C   3,C   4,H  15)          111.89  0.000094   -0.01    111.88   
    52. A(H  16,C   4,H  17)          105.20  0.000067   -0.03    105.17   
    53. A(C   3,C   5,N   6)          110.95 -0.000287    0.05    111.00   
    54. A(H  18,C   5,H  19)          108.89 -0.000067    0.01    108.89   
    55. A(N   6,C   5,H  19)          105.96  0.000130   -0.02    105.94   
    56. A(C   3,C   5,H  19)          112.15  0.000021    0.01    112.15   
    57. A(N   6,C   5,H  18)          106.41  0.000104   -0.02    106.38   
    58. A(C   3,C   5,H  18)          112.15  0.000106   -0.02    112.12   
    59. A(H  21,N   6,H  22)          108.27  0.000035   -0.01    108.26   
    60. A(H  20,N   6,H  22)          107.39  0.000095   -0.01    107.38   
    61. A(C   5,N   6,H  22)          110.07 -0.000143    0.03    110.10   
    62. A(H  20,N   6,H  21)          108.04  0.000015   -0.01    108.04   
    63. A(C   5,N   6,H  21)          112.13  0.000099   -0.02    112.11   
    64. A(C   5,N   6,H  20)          110.77 -0.000095    0.02    110.79   
    65. D(C   2,C   1,C   0,H   9)    -59.44 -0.000007   -0.07    -59.51   
    66. D(C   2,C   1,C   0,H   8)     59.07  0.000026   -0.09     58.98   
    67. D(H  10,C   1,C   0,H   8)    -57.82 -0.000037   -0.04    -57.86   
    68. D(H  10,C   1,C   0,H   9)   -176.33 -0.000069   -0.03   -176.36   
    69. D(C   3,C   1,C   0,H   7)    -56.02  0.000090   -0.12    -56.14   
    70. D(H  10,C   1,C   0,H   7)     61.35 -0.000025   -0.05     61.30   
    71. D(C   2,C   1,C   0,H   7)    178.24  0.000038   -0.10    178.15   
    72. D(C   3,C   1,C   0,H   8)   -175.20  0.000078   -0.11   -175.31   
    73. D(C   3,C   1,C   0,H   9)     66.29  0.000046   -0.09     66.20   
    74. D(H  11,C   2,C   1,C   3)    -67.41  0.000067   -0.09    -67.50   
    75. D(H  11,C   2,C   1,H  10)    177.13  0.000008   -0.07    177.06   
    76. D(H  11,C   2,C   1,C   0)     59.75 -0.000039   -0.06     59.69   
    77. D(H  12,C   2,C   1,C   3)    173.72  0.000054   -0.08    173.64   
    78. D(H  12,C   2,C   1,H  10)     58.27 -0.000004   -0.06     58.20   
    79. D(H  12,C   2,C   1,C   0)    -59.11 -0.000051   -0.05    -59.17   
    80. D(H  13,C   2,C   1,H  10)    -61.28  0.000030   -0.08    -61.36   
    81. D(H  13,C   2,C   1,C   3)     54.17  0.000089   -0.10     54.08   
    82. D(H  13,C   2,C   1,C   0)   -178.66 -0.000017   -0.07   -178.73   
    83. D(H  14,C   3,C   1,C   0)   -174.99 -0.000083    0.26   -174.74   
    84. D(C   5,C   3,C   1,H  10)    -48.69 -0.000026    0.21    -48.48   
    85. D(H  14,C   3,C   1,C   2)    -49.36 -0.000021    0.23    -49.12   
    86. D(C   5,C   3,C   1,C   2)   -164.70 -0.000086    0.25   -164.44   
    87. D(C   5,C   3,C   1,C   0)     69.67 -0.000148    0.28     69.95   
    88. D(C   4,C   3,C   1,C   2)     70.01 -0.000013    0.23     70.24   
    89. D(C   4,C   3,C   1,H  10)   -173.98  0.000047    0.19   -173.80   
    90. D(H  14,C   3,C   1,H  10)     66.65  0.000039    0.19     66.84   
    91. D(C   4,C   3,C   1,C   0)    -55.63 -0.000075    0.26    -55.37   
    92. D(H  16,C   4,C   3,C   1)    -49.82  0.000006   -0.02    -49.84   
    93. D(H  15,C   4,C   3,H  14)   -172.17  0.000019   -0.02   -172.19   
    94. D(H  15,C   4,C   3,C   5)    -54.14  0.000011   -0.01    -54.15   
    95. D(H  15,C   4,C   3,C   1)     69.88 -0.000020   -0.00     69.88   
    96. D(H  17,C   4,C   3,H  14)    -49.57 -0.000010   -0.01    -49.58   
    97. D(H  17,C   4,C   3,C   5)     68.46 -0.000018    0.01     68.46   
    98. D(H  17,C   4,C   3,C   1)   -167.52 -0.000049    0.01   -167.51   
    99. D(H  16,C   4,C   3,H  14)     68.13  0.000045   -0.04     68.09   
   100. D(H  16,C   4,C   3,C   5)   -173.84  0.000037   -0.02   -173.86   
   101. D(H  19,C   5,C   3,H  14)    178.74 -0.000022   -0.05    178.69   
   102. D(H  19,C   5,C   3,C   4)     60.00  0.000077   -0.09     59.91   
   103. D(H  19,C   5,C   3,C   1)    -66.76 -0.000028   -0.07    -66.82   
   104. D(H  18,C   5,C   3,H  14)    -58.37 -0.000015   -0.06    -58.43   
   105. D(H  18,C   5,C   3,C   4)   -177.11  0.000084   -0.10   -177.21   
   106. D(H  18,C   5,C   3,C   1)     56.13 -0.000021   -0.07     56.06   
   107. D(N   6,C   5,C   3,H  14)     60.47 -0.000007   -0.07     60.40   
   108. D(N   6,C   5,C   3,C   4)    -58.27  0.000091   -0.11    -58.38   
   109. D(N   6,C   5,C   3,C   1)    174.97 -0.000014   -0.08    174.89   
   110. D(H  22,N   6,C   5,H  19)    -64.02 -0.000004    0.08    -63.94   
   111. D(H  22,N   6,C   5,H  18)   -179.82 -0.000035    0.10   -179.72   
   112. D(H  22,N   6,C   5,C   3)     57.93 -0.000062    0.11     58.05   
   113. D(H  21,N   6,C   5,H  19)     56.57  0.000008    0.08     56.65   
   114. D(H  21,N   6,C   5,H  18)    -59.22 -0.000023    0.09    -59.13   
   115. D(H  21,N   6,C   5,C   3)    178.53 -0.000050    0.11    178.64   
   116. D(H  20,N   6,C   5,H  19)    177.36  0.000028    0.07    177.43   
   117. D(H  20,N   6,C   5,H  18)     61.57 -0.000003    0.08     61.65   
   118. D(H  20,N   6,C   5,C   3)    -60.68 -0.000030    0.10    -60.58   
    ----------------------------------------------------------------------------

         *************************************************************
         *                GEOMETRY OPTIMIZATION CYCLE   2            *
         *************************************************************
---------------------------------
CARTESIAN COORDINATES (ANGSTROEM)
---------------------------------
  C      1.388421   -0.002629   -1.596838
  C      0.083947    0.611553   -1.101554
  C     -0.994980    0.524971   -2.172912
  C     -0.413924    0.014606    0.234194
  C     -0.578300   -1.501348    0.211926
  C      0.513279    0.457390    1.352201
  N     -0.002235    0.001912    2.694201
  H      2.202711    0.066238   -0.870434
  H      1.723917    0.519115   -2.494537
  H      1.262450   -1.053902   -1.866302
  H      0.263976    1.678085   -0.911970
  H     -1.201423   -0.508439   -2.461592
  H     -0.671149    1.049279   -3.073457
  H     -1.932263    0.980674   -1.844094
  H     -1.396466    0.470616    0.423401
  H      0.385718   -2.015009    0.164064
  H     -1.156782   -1.813103   -0.657388
  H     -1.131000   -1.885411    1.076981
  H      0.599834    1.543272    1.408238
  H      1.511191    0.028188    1.253242
  H     -0.924542    0.400203    2.882820
  H      0.620751    0.271765    3.457121
  H     -0.100907   -1.015668    2.705789

----------------------------
CARTESIAN COORDINATES (A.U.)
----------------------------
  NO LB      ZA    FRAG    MASS        X           Y           Z
   0 C     6.0000    0    12.011          2.623735518209490         -0.004968033304129         -3.017587141240775
   1 C     6.0000    0    12.011          0.158636761813068          1.155666951924575         -2.081635751358586
   2 C     6.0000    0    12.011         -1.880238986503472          0.992052245959488         -4.106209244872113
   3 C     6.0000    0    12.011         -0.782203805077234          0.027600986228706          0.442562607972331
   4 C     6.0000    0    12.011         -1.092827743356598         -2.837136707764386          0.400482075571190
   5 C     6.0000    0    12.011          0.969956823305299          0.864342074154477          2.555289425399077
   6 N     7.0000    0    14.007         -0.004223324370197          0.003612827131900          5.091301349652431
   7 H     1.0000    0     1.008          4.162520612808282          0.125171248817953         -1.644882506042651
   8 H     1.0000    0     1.008          3.257730299834605          0.980985810116317         -4.713990972262899
   9 H     1.0000    0     1.008          2.385683930125422         -1.991586601431763         -3.526798886180014
  10 H     1.0000    0     1.008          0.498841851731438          3.171120588177901         -1.723372767430610
  11 H     1.0000    0     1.008         -2.270360833742610         -0.960810022953315         -4.651735241872066
  12 H     1.0000    0     1.008         -1.268288078769169          1.982849636027233         -5.807991299786209
  13 H     1.0000    0     1.008         -3.651447302434820          1.853204349514930         -3.484833396081611
  14 H     1.0000    0     1.008         -2.638938217910207          0.889334947110046          0.800112517941839
  15 H     1.0000    0     1.008          0.728902176182362         -3.807815234429881          0.310035346168259
  16 H     1.0000    0     1.008         -2.186000698906073         -3.426268222569456         -1.242282649669518
  17 H     1.0000    0     1.008         -2.137279415196087         -3.562910102414618          2.035199544280247
  18 H     1.0000    0     1.008          1.133521513953941          2.916362367995099          2.661183672069409
  19 H     1.0000    0     1.008          2.855737697266899          0.053267008016616          2.368285098001732
  20 H     1.0000    0     1.008         -1.747131026599902          0.756274819058567          5.447741228443561
  21 H     1.0000    0     1.008          1.173049647386578          0.513562244964045          6.533011151319462
  22 H     1.0000    0     1.008         -0.190686697912031         -1.919333954829106          5.113200035071467

--------------------------------
INTERNAL COORDINATES (ANGSTROEM)
--------------------------------
 C      0   0   0   0.000000     0.000     0.000
 C      1   0   0   1.524526     0.000     0.000
 C      2   1   0   1.522953   110.778     0.000
 C      2   1   3   1.545459   113.630   125.715
 C      4   2   1   1.525002   113.958   304.629
 C      4   2   1   1.518454   109.088    69.945
 N      6   4   2   1.508038   111.002   174.887
 H      1   2   3   1.093377   113.331   178.145
 H      1   2   3   1.091163   109.739    58.977
 H      1   2   3   1.092545   111.661   300.486
 H      2   1   3   1.098109   107.884   243.159
 H      3   2   1   1.092654   111.930    59.693
 H      3   2   1   1.091212   110.060   300.834
 H      3   2   1   1.092834   111.853   181.270
 H      4   2   1   1.099606   106.045   185.263
 H      5   4   2   1.093375   111.877    69.880
 H      5   4   2   1.089743   110.686   310.164
 H      5   4   2   1.096039   113.027   192.492
 H      6   4   2   1.090767   112.122    56.056
 H      6   4   2   1.090796   112.154   293.176
 H      7   6   4   1.022186   110.791   299.419
 H      7   6   4   1.021264   112.114   178.638
 H      7   6   4   1.022418   110.101    58.046

---------------------------
INTERNAL COORDINATES (A.U.)
---------------------------
 C      0   0   0   0.000000     0.000     0.000
 C      1   0   0   2.880936     0.000     0.000
 C      2   1   0   2.877965   110.778     0.000
 C      2   1   3   2.920495   113.630   125.715
 C      4   2   1   2.881836   113.958   304.629
 C      4   2   1   2.869463   109.088    69.945
 N      6   4   2   2.849779   111.002   174.887
 H      1   2   3   2.066183   113.331   178.145
 H      1   2   3   2.061999   109.739    58.977
 H      1   2   3   2.064611   111.661   300.486
 H      2   1   3   2.075125   107.884   243.159
 H      3   2   1   2.064816   111.930    59.693
 H      3   2   1   2.062093   110.060   300.834
 H      3   2   1   2.065156   111.853   181.270
 H      4   2   1   2.077953   106.045   185.263
 H      5   4   2   2.066179   111.877    69.880
 H      5   4   2   2.059315   110.686   310.164
 H      5   4   2   2.071214   113.027   192.492
 H      6   4   2   2.061251   112.122    56.056
 H      6   4   2   2.061306   112.154   293.176
 H      7   6   4   1.931651   110.791   299.419
 H      7   6   4   1.929909   112.114   178.638
 H      7   6   4   1.932090   110.101    58.046



           ************************************************************
           *        Program running with 8 parallel MPI-processes     *
           *              working on a common directory               *
           ************************************************************
           ************************************************************
           *              Shut down parallel processing               *
           ************************************************************


           ************************************************************
           *        Program running with 8 parallel MPI-processes     *
           *              working on a common directory               *
           ************************************************************

Diagonalization of the overlap matrix:
Smallest eigenvalue                        ... 1.109e-04
Time for diagonalization                   ...    0.225 sec
Threshold for overlap eigenvalues          ... 1.000e-08
Number of eigenvalues below threshold      ... 0
Time for construction of square roots      ...    0.021 sec
Total time needed                          ...    0.246 sec

-------------------
DFT GRID GENERATION
-------------------

General Integration Accuracy     IntAcc      ...  4.340
Radial Grid Type                 RadialGrid  ... Gauss-Chebyshev
Angular Grid (max. acc.)         AngularGrid ... Lebedev-194
Angular grid pruning method      GridPruning ... 3 (G Style)
Weight generation scheme         WeightScheme... Becke
Basis function cutoff            BFCut       ...    1.0000e-11
Integration weight cutoff        WCut        ...    1.0000e-14
Grids for H and He will be reduced by one unit

# of grid points (after initial pruning)     ...  47458 (   0.0 sec)
# of grid points (after weights+screening)   ...  42510 (   0.2 sec)
nearest neighbour list constructed           ...    0.0 sec
Grid point re-assignment to atoms done       ...    0.0 sec
Grid point division into batches done        ...    0.1 sec
Reduced shell lists constructed in    0.3 sec

Total number of grid points                  ...    42510
Total number of batches                      ...      673
Average number of points per batch           ...       63
Average number of grid points per atom       ...     1848
Average number of shells per batch           ...   111.64 (79.18%)
Average number of basis functions per batch  ...   255.87 (81.75%)
Average number of large shells per batch     ...    90.66 (81.21%)
Average number of large basis fcns per batch ...   207.71 (81.18%)
Maximum spatial batch extension              ...   3.62,  2.18,  2.39 au
Average spatial batch extension              ...   0.15,  0.15,  0.15 au

Time for grid setup =    0.699 sec

--------------
SCF ITERATIONS
--------------
ITER       Energy         Delta-E        Max-DP      RMS-DP      [F,P]     Damp
               ***  Starting incremental Fock matrix formation  ***
                      *** Initiating the SOSCF procedure ***
                      *** Re-Reading the Fockian *** 
                      *** Removing any level shift *** 
ITER      Energy       Delta-E        Grad      Rot      Max-DP    RMS-DP
  0   -292.53817644 -292.5381764426  0.000294  0.000294  0.000550  0.000014
               *** Restarting incremental Fock matrix formation ***
  1   -292.53818698  -0.0000105386  0.000073  0.000106  0.000209  0.000006
  2   -292.53818793  -0.0000009482  0.000011  0.000022  0.000059  0.000001
  3   -292.53818793  -0.0000000045  0.000016  0.000011  0.000021  0.000001
                  ***Gradient check signals convergence***
              ***Rediagonalizing the Fockian in SOSCF/NRSCF***

               *****************************************************
               *                     SUCCESS                       *
               *           SCF CONVERGED AFTER   4 CYCLES          *
               *****************************************************

Setting up the final grid:

General Integration Accuracy     IntAcc      ...  5.010
Radial Grid Type                 RadialGrid  ... Gauss-Chebyshev
Angular Grid (max. acc.)         AngularGrid ... Lebedev-434
Angular grid pruning method      GridPruning ... 3 (G Style)
Weight generation scheme         WeightScheme... Becke
Basis function cutoff            BFCut       ...    1.0000e-11
Integration weight cutoff        WCut        ...    1.0000e-14
Grids for H and He will be reduced by one unit

# of grid points (after initial pruning)     ... 181850 (   0.0 sec)
# of grid points (after weights+screening)   ... 160675 (   0.8 sec)
nearest neighbour list constructed           ...    0.0 sec
Grid point re-assignment to atoms done       ...    0.1 sec
Grid point division into batches done        ...    1.0 sec
Reduced shell lists constructed in    1.4 sec

Total number of grid points                  ...   160675
Total number of batches                      ...     2522
Average number of points per batch           ...       63
Average number of grid points per atom       ...     6986
Average number of shells per batch           ...   111.08 (78.78%)
Average number of basis functions per batch  ...   256.03 (81.80%)
Average number of large shells per batch     ...    89.36 (80.44%)
Average number of large basis fcns per batch ...   204.83 (80.00%)
Maximum spatial batch extension              ...   2.32,  2.19,  2.39 au
Average spatial batch extension              ...   0.10,  0.10,  0.10 au

Final grid set up in    2.9 sec
Final integration                            ... done (   1.3 sec)
Change in XC energy                          ...     0.000565501
Integrated number of electrons               ...    57.999965397
Previous integrated no of electrons          ...    58.000763430
Total Energy       :         -292.53762245 Eh           -7960.35340 eV
  Last Energy change         ...   -2.0016e-08  Tolerance :   1.0000e-08
  Last MAX-Density change    ...    4.3055e-06  Tolerance :   1.0000e-07
             **** THE GBW FILE WAS UPDATED (2137_+.gbw) ****
             **** DENSITY FILE WAS UPDATED (2137_+.scfp.tmp) ****
             **** ENERGY FILE WAS UPDATED (2137_+.en.tmp) ****
Total SCF time: 0 days 0 hours 0 min 50 sec 
           ************************************************************
           *              Shut down parallel processing               *
           ************************************************************

-------------------------   --------------------
FINAL SINGLE POINT ENERGY      -292.537622452867
-------------------------   --------------------



           ************************************************************
           *        Program running with 8 parallel MPI-processes     *
           *              working on a common directory               *
           ************************************************************
------------------------------------------------------------------------------
                         ORCA SCF GRADIENT CALCULATION
------------------------------------------------------------------------------

Gradient of the Kohn-Sham DFT energy:
Kohn-Sham wavefunction type      ... RKS
Hartree-Fock exchange scaling    ...    0.250
Number of operators              ...    1
Number of atoms                  ...   23
Basis set dimensions             ...  313
Integral neglect threshold       ... 2.5e-11
Integral primitive cutoff        ... 2.5e-12

Nuclear repulsion gradient       ... done
One Electron Gradient            ... done
Pre-screening matrix             ... done
Starting the two electron gradient:
Two electron gradient done
Exchange-correlation gradient    ... done

------------------
CARTESIAN GRADIENT
------------------

   1   C   :   -0.000018073    0.000070666   -0.000045911
   2   C   :   -0.000150445    0.000065107   -0.000067854
   3   C   :    0.000127413   -0.000097468    0.000123632
   4   C   :    0.000154913   -0.000033272   -0.000094023
   5   C   :   -0.000095691    0.000121919    0.000031325
   6   C   :   -0.000069679   -0.000086862    0.000192814
   7   N   :    0.000059263    0.000068459   -0.000004243
   8   H   :   -0.000041379   -0.000008557    0.000030343
   9   H   :    0.000028553   -0.000037282   -0.000004997
  10   H   :    0.000059168   -0.000016772   -0.000025356
  11   H   :   -0.000013871   -0.000015277    0.000035436
  12   H   :   -0.000078431    0.000027454   -0.000021169
  13   H   :    0.000009227    0.000002702    0.000000662
  14   H   :   -0.000029483   -0.000013076   -0.000054704
  15   H   :   -0.000021882   -0.000002370    0.000021428
  16   H   :   -0.000004580   -0.000067585   -0.000008984
  17   H   :    0.000048628   -0.000035656   -0.000004030
  18   H   :    0.000011987   -0.000014132    0.000016141
  19   H   :    0.000024338    0.000007278   -0.000012384
  20   H   :    0.000005168    0.000056733   -0.000040120
  21   H   :    0.000018774    0.000038752   -0.000013131
  22   H   :   -0.000023124   -0.000034043    0.000021375
  23   H   :   -0.000000796    0.000003282   -0.000076251

Norm of the cartesian gradient     ...    0.000494685
RMS gradient                       ...    0.000059553
MAX gradient                       ...    0.000192814

-------
TIMINGS
-------

Total SCF gradient time            ...       47.184 sec

One electron gradient       ....       0.298 sec  (  0.6%)
Prescreening matrices       ....       0.576 sec  (  1.2%)
Two electron gradient       ....      39.503 sec  ( 83.7%)
XC gradient                 ....       5.699 sec  ( 12.1%)
           ************************************************************
           *              Shut down parallel processing               *
           ************************************************************
------------------------------------------------------------------------------
                         ORCA GEOMETRY RELAXATION STEP
------------------------------------------------------------------------------

Reading the OPT-File                    .... done
Getting information on internals        .... done
Copying old internal coords+grads       .... done
Making the new internal coordinates     .... (new redundants).... done
Validating the new internal coordinates .... (new redundants).... done
Calculating the B-matrix                .... done
Calculating the G,G- and P matrices     .... done
Transforming gradient to internals      .... done
Projecting the internal gradient        .... done
Number of atoms                         ....  23
Number of internal coordinates          .... 118
Current Energy                          ....  -292.537622453 Eh
Current gradient norm                   ....     0.000494685 Eh/bohr
Maximum allowed component of the step   ....  0.300
Current trust radius                    ....  0.300
Updating the Hessian (BFGS)             .... done
Forming the augmented Hessian           .... done
Diagonalizing the augmented Hessian     .... done
Last element of RFO vector              ....  0.999897895
Lowest eigenvalues of augmented Hessian:
 -0.000002141  0.007244815  0.011242418  0.011577680  0.011640750
Length of the computed step             ....  0.014291336
The final length of the internal step   ....  0.014291336
Converting the step to cartesian space:
 Initial RMS(Int)=    0.0013156241
Transforming coordinates:
 Iter   0:  RMS(Cart)=    0.0035650602 RMS(Int)=    0.0013155921
 Iter   1:  RMS(Cart)=    0.0000046985 RMS(Int)=    0.0000025642
 Iter   2:  RMS(Cart)=    0.0000000136 RMS(Int)=    0.0000000075
done
Storing new coordinates                 .... done

                                .--------------------.
          ----------------------|Geometry convergence|---------------------
          Item                value                 Tolerance   Converged
          -----------------------------------------------------------------
          Energy change      -0.00000409            0.00000100      NO
          RMS gradient        0.00003493            0.00003000      NO
          MAX gradient        0.00010395            0.00010000      NO
          RMS step            0.00131562            0.00060000      NO
          MAX step            0.00425220            0.00100000      NO
          ....................................................
          Max(Bonds)      0.0003      Max(Angles)    0.04
          Max(Dihed)        0.24      Max(Improp)    0.00
          -----------------------------------------------------------------

The optimization has not yet converged - more geometry cycles are needed


    ---------------------------------------------------------------------------
                         Redundant Internal Coordinates
                            (Angstroem and degrees)

        Definition                    Value    dE/dq     Step     New-Value
    ----------------------------------------------------------------------------
     1. B(C   1,C   0)                1.5245  0.000038 -0.0001    1.5245   
     2. B(C   2,C   1)                1.5230 -0.000056  0.0001    1.5230   
     3. B(C   3,C   1)                1.5455 -0.000011  0.0001    1.5455   
     4. B(C   4,C   3)                1.5250 -0.000002  0.0000    1.5250   
     5. B(C   5,C   3)                1.5185  0.000068 -0.0001    1.5184   
     6. B(N   6,C   5)                1.5080 -0.000101  0.0003    1.5083   
     7. B(H   7,C   0)                1.0934 -0.000010 -0.0000    1.0933   
     8. B(H   8,C   0)                1.0912 -0.000005  0.0000    1.0912   
     9. B(H   9,C   0)                1.0925  0.000016 -0.0001    1.0925   
    10. B(H  10,C   1)                1.0981 -0.000010  0.0000    1.0981   
    11. B(H  11,C   2)                1.0927 -0.000010  0.0000    1.0927   
    12. B(H  12,C   2)                1.0912  0.000006  0.0000    1.0912   
    13. B(H  13,C   2)                1.0928  0.000004 -0.0000    1.0928   
    14. B(H  14,C   3)                1.0996  0.000022 -0.0001    1.0995   
    15. B(H  15,C   4)                1.0934  0.000026 -0.0001    1.0933   
    16. B(H  16,C   4)                1.0897 -0.000010 -0.0000    1.0897   
    17. B(H  17,C   4)                1.0960  0.000011 -0.0001    1.0959   
    18. B(H  18,C   5)                1.0908  0.000006 -0.0000    1.0907   
    19. B(H  19,C   5)                1.0908 -0.000013  0.0000    1.0908   
    20. B(H  20,N   6)                1.0222 -0.000004  0.0000    1.0222   
    21. B(H  21,N   6)                1.0213 -0.000009 -0.0000    1.0212   
    22. B(H  22,N   6)                1.0224 -0.000001 -0.0000    1.0224   
    23. A(H   7,C   0,H   8)          106.71  0.000009   -0.01    106.70   
    24. A(C   1,C   0,H   7)          113.33 -0.000088    0.03    113.36   
    25. A(H   8,C   0,H   9)          107.02 -0.000063    0.01    107.03   
    26. A(C   1,C   0,H   9)          111.66  0.000089   -0.03    111.63   
    27. A(H   7,C   0,H   9)          108.08 -0.000019    0.01    108.09   
    28. A(C   1,C   0,H   8)          109.74  0.000068   -0.03    109.71   
    29. A(C   2,C   1,C   3)          110.97  0.000035   -0.02    110.94   
    30. A(C   2,C   1,H  10)          107.03  0.000013   -0.02    107.01   
    31. A(C   0,C   1,C   3)          113.63 -0.000016    0.02    113.65   
    32. A(C   0,C   1,H  10)          107.88 -0.000002    0.02    107.90   
    33. A(C   0,C   1,C   2)          110.78 -0.000007   -0.01    110.77   
    34. A(C   3,C   1,H  10)          106.19 -0.000023    0.02    106.21   
    35. A(H  12,C   2,H  13)          107.61 -0.000023    0.02    107.62   
    36. A(C   1,C   2,H  13)          111.85  0.000067   -0.02    111.83   
    37. A(C   1,C   2,H  12)          110.06 -0.000050    0.02    110.08   
    38. A(C   1,C   2,H  11)          111.93  0.000104   -0.04    111.89   
    39. A(H  11,C   2,H  13)          108.17 -0.000085    0.03    108.20   
    40. A(H  11,C   2,H  12)          107.01 -0.000021    0.00    107.01   
    41. A(C   4,C   3,C   5)          111.50 -0.000033    0.01    111.51   
    42. A(C   5,C   3,H  14)          107.34  0.000008    0.00    107.34   
    43. A(C   4,C   3,H  14)          108.57 -0.000020    0.03    108.60   
    44. A(C   1,C   3,H  14)          106.04 -0.000016    0.01    106.05   
    45. A(C   1,C   3,C   5)          109.09  0.000026   -0.02    109.07   
    46. A(C   1,C   3,C   4)          113.96  0.000035   -0.03    113.93   
    47. A(H  15,C   4,H  17)          108.33 -0.000040    0.01    108.35   
    48. A(C   3,C   4,H  17)          113.03 -0.000007    0.00    113.03   
    49. A(H  15,C   4,H  16)          107.38 -0.000066    0.03    107.41   
    50. A(C   3,C   4,H  16)          110.69  0.000032   -0.01    110.68   
    51. A(C   3,C   4,H  15)          111.88  0.000074   -0.02    111.86   
    52. A(H  16,C   4,H  17)          105.17 -0.000003   -0.01    105.16   
    53. A(C   3,C   5,N   6)          111.00 -0.000054    0.02    111.02   
    54. A(H  18,C   5,H  19)          108.89 -0.000028    0.02    108.91   
    55. A(N   6,C   5,H  19)          105.94  0.000053   -0.02    105.92   
    56. A(C   3,C   5,H  19)          112.15 -0.000021    0.02    112.17   
    57. A(N   6,C   5,H  18)          106.38  0.000018   -0.02    106.37   
    58. A(C   3,C   5,H  18)          112.12  0.000035   -0.02    112.10   
    59. A(H  21,N   6,H  22)          108.26  0.000016   -0.01    108.26   
    60. A(H  20,N   6,H  22)          107.38  0.000052   -0.01    107.37   
    61. A(C   5,N   6,H  22)          110.10 -0.000104    0.04    110.14   
    62. A(H  20,N   6,H  21)          108.04 -0.000014   -0.00    108.03   
    63. A(C   5,N   6,H  21)          112.11  0.000090   -0.03    112.08   
    64. A(C   5,N   6,H  20)          110.79 -0.000038    0.01    110.81   
    65. D(C   2,C   1,C   0,H   9)    -59.51 -0.000014   -0.04    -59.56   
    66. D(C   2,C   1,C   0,H   8)     58.98  0.000007   -0.06     58.92   
    67. D(H  10,C   1,C   0,H   8)    -57.86 -0.000004   -0.04    -57.90   
    68. D(H  10,C   1,C   0,H   9)   -176.36 -0.000025   -0.02   -176.38   
    69. D(C   3,C   1,C   0,H   7)    -56.14  0.000036   -0.09    -56.23   
    70. D(H  10,C   1,C   0,H   7)     61.30 -0.000003   -0.05     61.26   
    71. D(C   2,C   1,C   0,H   7)    178.15  0.000008   -0.07    178.08   
    72. D(C   3,C   1,C   0,H   8)   -175.31  0.000035   -0.09   -175.40   
    73. D(C   3,C   1,C   0,H   9)     66.20  0.000014   -0.07     66.13   
    74. D(H  11,C   2,C   1,C   3)    -67.50  0.000007   -0.07    -67.57   
    75. D(H  11,C   2,C   1,H  10)    177.06  0.000008   -0.08    176.98   
    76. D(H  11,C   2,C   1,C   0)     59.69  0.000007   -0.08     59.61   
    77. D(H  12,C   2,C   1,C   3)    173.64 -0.000001   -0.07    173.57   
    78. D(H  12,C   2,C   1,H  10)     58.20  0.000001   -0.07     58.13   
    79. D(H  12,C   2,C   1,C   0)    -59.17 -0.000001   -0.07    -59.24   
    80. D(H  13,C   2,C   1,H  10)    -61.36  0.000020   -0.09    -61.45   
    81. D(H  13,C   2,C   1,C   3)     54.08  0.000018   -0.08     53.99   
    82. D(H  13,C   2,C   1,C   0)   -178.73  0.000018   -0.09   -178.82   
    83. D(H  14,C   3,C   1,C   0)   -174.74 -0.000020    0.22   -174.52   
    84. D(C   5,C   3,C   1,H  10)    -48.48 -0.000007    0.18    -48.30   
    85. D(H  14,C   3,C   1,C   2)    -49.12 -0.000014    0.20    -48.93   
    86. D(C   5,C   3,C   1,C   2)   -164.44 -0.000028    0.20   -164.24   
    87. D(C   5,C   3,C   1,C   0)     69.95 -0.000034    0.22     70.17   
    88. D(C   4,C   3,C   1,C   2)     70.24 -0.000030    0.22     70.47   
    89. D(C   4,C   3,C   1,H  10)   -173.80 -0.000009    0.20   -173.60   
    90. D(H  14,C   3,C   1,H  10)     66.84  0.000006    0.17     67.01   
    91. D(C   4,C   3,C   1,C   0)    -55.37 -0.000036    0.24    -55.13   
    92. D(H  16,C   4,C   3,C   1)    -49.84  0.000028   -0.06    -49.90   
    93. D(H  15,C   4,C   3,H  14)   -172.19  0.000004   -0.04   -172.23   
    94. D(H  15,C   4,C   3,C   5)    -54.15 -0.000018   -0.01    -54.16   
    95. D(H  15,C   4,C   3,C   1)     69.88  0.000016   -0.05     69.83   
    96. D(H  17,C   4,C   3,H  14)    -49.58  0.000003   -0.03    -49.61   
    97. D(H  17,C   4,C   3,C   5)     68.46 -0.000020   -0.00     68.46   
    98. D(H  17,C   4,C   3,C   1)   -167.51  0.000015   -0.04   -167.55   
    99. D(H  16,C   4,C   3,H  14)     68.09  0.000016   -0.05     68.04   
   100. D(H  16,C   4,C   3,C   5)   -173.86 -0.000006   -0.02   -173.89   
   101. D(H  19,C   5,C   3,H  14)    178.69  0.000004   -0.02    178.67   
   102. D(H  19,C   5,C   3,C   4)     59.91  0.000043   -0.06     59.85   
   103. D(H  19,C   5,C   3,C   1)    -66.82  0.000002   -0.02    -66.84   
   104. D(H  18,C   5,C   3,H  14)    -58.43 -0.000023    0.00    -58.43   
   105. D(H  18,C   5,C   3,C   4)   -177.21  0.000016   -0.04   -177.25   
   106. D(H  18,C   5,C   3,C   1)     56.06 -0.000024    0.00     56.06   
   107. D(N   6,C   5,C   3,H  14)     60.40 -0.000014   -0.02     60.39   
   108. D(N   6,C   5,C   3,C   4)    -58.38  0.000025   -0.06    -58.44   
   109. D(N   6,C   5,C   3,C   1)    174.89 -0.000015   -0.02    174.87   
   110. D(H  22,N   6,C   5,H  19)    -63.94 -0.000019    0.13    -63.81   
   111. D(H  22,N   6,C   5,H  18)   -179.72 -0.000020    0.13   -179.59   
   112. D(H  22,N   6,C   5,C   3)     58.05 -0.000042    0.15     58.20   
   113. D(H  21,N   6,C   5,H  19)     56.65 -0.000011    0.13     56.78   
   114. D(H  21,N   6,C   5,H  18)    -59.13 -0.000012    0.12    -59.01   
   115. D(H  21,N   6,C   5,C   3)    178.64 -0.000034    0.14    178.78   
   116. D(H  20,N   6,C   5,H  19)    177.43  0.000007    0.11    177.55   
   117. D(H  20,N   6,C   5,H  18)     61.65  0.000005    0.11     61.76   
   118. D(H  20,N   6,C   5,C   3)    -60.58 -0.000017    0.13    -60.45   
    ----------------------------------------------------------------------------

         *************************************************************
         *                GEOMETRY OPTIMIZATION CYCLE   3            *
         *************************************************************
---------------------------------
CARTESIAN COORDINATES (ANGSTROEM)
---------------------------------
  C      1.387649   -0.005227   -1.598225
  C      0.084924    0.611151   -1.101273
  C     -0.995013    0.527508   -2.171981
  C     -0.413708    0.013867    0.234131
  C     -0.575804   -1.502370    0.211370
  C      0.512188    0.457979    1.352557
  N     -0.003737    0.002898    2.694878
  H      2.203403    0.062097   -0.873379
  H      1.722439    0.516185   -2.496396
  H      1.258970   -1.056135   -1.867588
  H      0.266905    1.677293   -0.911211
  H     -1.202210   -0.505431   -2.461832
  H     -0.671620    1.052877   -3.072069
  H     -1.931456    0.983499   -1.841180
  H     -1.396805    0.468873    0.422432
  H      0.389128   -2.014200    0.163710
  H     -1.153708   -1.814531   -0.658154
  H     -1.128254   -1.887480    1.075996
  H      0.597346    1.543982    1.408042
  H      1.510607    0.029648    1.254884
  H     -0.927418    0.398688    2.882035
  H      0.617764    0.276106    3.457793
  H     -0.099366   -1.014921    2.708562

----------------------------
CARTESIAN COORDINATES (A.U.)
----------------------------
  NO LB      ZA    FRAG    MASS        X           Y           Z
   0 C     6.0000    0    12.011          2.622275984138037         -0.009877958355216         -3.020207845152147
   1 C     6.0000    0    12.011          0.160483320137204          1.154908700660941         -2.081105041684205
   2 C     6.0000    0    12.011         -1.880301234643574          0.996846549755494         -4.104449603552839
   3 C     6.0000    0    12.011         -0.781794990689410          0.026205136105543          0.442442690483062
   4 C     6.0000    0    12.011         -1.088112681890786         -2.839068285963188          0.399431583423570
   5 C     6.0000    0    12.011          0.967894222414827          0.865455635558718          2.555961973177778
   6 N     7.0000    0    14.007         -0.007061426944907          0.005476994201401          5.092581034528531
   7 H     1.0000    0     1.008          4.163828938745372          0.117345982100863         -1.650447289041928
   8 H     1.0000    0     1.008          3.254938657812584          0.975448513215272         -4.717504882522448
   9 H     1.0000    0     1.008          2.379108684603819         -1.995805628408520         -3.529230567376767
  10 H     1.0000    0     1.008          0.504377202448468          3.169624189361528         -1.721939331152802
  11 H     1.0000    0     1.008         -2.271847486440270         -0.955125262604230         -4.652188994299309
  12 H     1.0000    0     1.008         -1.269177046716204          1.989649392533124         -5.805368412170526
  13 H     1.0000    0     1.008         -3.649922280678405          1.858542934090735         -3.479326489807363
  14 H     1.0000    0     1.008         -2.639579845125703          0.886041558276012          0.798280302196193
  15 H     1.0000    0     1.008          0.735344840310403         -3.806285491125460          0.309367081638301
  16 H     1.0000    0     1.008         -2.180191391680018         -3.428967108803382         -1.243730223775608
  17 H     1.0000    0     1.008         -2.132091861618739         -3.566819548707389          2.033337789613685
  18 H     1.0000    0     1.008          1.128820226344350          2.917702294272181          2.660814136705522
  19 H     1.0000    0     1.008          2.854632614367435          0.056026660458279          2.371386913511066
  20 H     1.0000    0     1.008         -1.752565283494594          0.753411565147434          5.446257685908743
  21 H     1.0000    0     1.008          1.167405587569259          0.521765501030322          6.534281166893340
  22 H     1.0000    0     1.008         -0.187774047130168         -1.917923097299263          5.118440517550104

--------------------------------
INTERNAL COORDINATES (ANGSTROEM)
--------------------------------
 C      0   0   0   0.000000     0.000     0.000
 C      1   0   0   1.524459     0.000     0.000
 C      2   1   0   1.523048   110.766     0.000
 C      2   1   3   1.545538   113.648   125.687
 C      4   2   1   1.525047   113.930   304.873
 C      4   2   1   1.518353   109.067    70.166
 N      6   4   2   1.508344   111.020   174.870
 H      1   2   3   1.093339   113.364   178.080
 H      1   2   3   1.091177   109.713    58.916
 H      1   2   3   1.092484   111.633   300.443
 H      2   1   3   1.098134   107.900   243.179
 H      3   2   1   1.092661   111.892    59.614
 H      3   2   1   1.091216   110.078   300.763
 H      3   2   1   1.092832   111.832   181.182
 H      4   2   1   1.099531   106.052   185.480
 H      5   4   2   1.093314   111.856    69.831
 H      5   4   2   1.089719   110.676   310.102
 H      5   4   2   1.095942   113.027   192.448
 H      6   4   2   1.090748   112.105    56.057
 H      6   4   2   1.090802   112.169   293.156
 H      7   6   4   1.022186   110.806   299.549
 H      7   6   4   1.021247   112.083   178.783
 H      7   6   4   1.022394   110.137    58.198

---------------------------
INTERNAL COORDINATES (A.U.)
---------------------------
 C      0   0   0   0.000000     0.000     0.000
 C      1   0   0   2.880810     0.000     0.000
 C      2   1   0   2.878143   110.766     0.000
 C      2   1   3   2.920643   113.648   125.687
 C      4   2   1   2.881922   113.930   304.873
 C      4   2   1   2.869271   109.067    70.166
 N      6   4   2   2.850358   111.020   174.870
 H      1   2   3   2.066111   113.364   178.080
 H      1   2   3   2.062025   109.713    58.916
 H      1   2   3   2.064496   111.633   300.443
 H      2   1   3   2.075173   107.900   243.179
 H      3   2   1   2.064829   111.892    59.614
 H      3   2   1   2.062100   110.078   300.763
 H      3   2   1   2.065153   111.832   181.182
 H      4   2   1   2.077812   106.052   185.480
 H      5   4   2   2.066063   111.856    69.831
 H      5   4   2   2.059271   110.676   310.102
 H      5   4   2   2.071030   113.027   192.448
 H      6   4   2   2.061215   112.105    56.057
 H      6   4   2   2.061316   112.169   293.156
 H      7   6   4   1.931651   110.806   299.549
 H      7   6   4   1.929877   112.083   178.783
 H      7   6   4   1.932044   110.137    58.198



           ************************************************************
           *        Program running with 8 parallel MPI-processes     *
           *              working on a common directory               *
           ************************************************************
           ************************************************************
           *              Shut down parallel processing               *
           ************************************************************


           ************************************************************
           *        Program running with 8 parallel MPI-processes     *
           *              working on a common directory               *
           ************************************************************

Diagonalization of the overlap matrix:
Smallest eigenvalue                        ... 1.108e-04
Time for diagonalization                   ...    0.120 sec
Threshold for overlap eigenvalues          ... 1.000e-08
Number of eigenvalues below threshold      ... 0
Time for construction of square roots      ...    0.020 sec
Total time needed                          ...    0.140 sec

-------------------
DFT GRID GENERATION
-------------------

General Integration Accuracy     IntAcc      ...  4.340
Radial Grid Type                 RadialGrid  ... Gauss-Chebyshev
Angular Grid (max. acc.)         AngularGrid ... Lebedev-194
Angular grid pruning method      GridPruning ... 3 (G Style)
Weight generation scheme         WeightScheme... Becke
Basis function cutoff            BFCut       ...    1.0000e-11
[...]
     59       0.002890   0.001302   0.003645  -0.001416  -0.068140   0.004003
     60       0.002500   0.000587   0.000809   0.000192  -0.011773   0.002039
     61      -0.000702   0.000910  -0.000239  -0.000336   0.007167   0.000877
     62      -0.002403   0.000291  -0.000323  -0.000041  -0.000010   0.001139
     63       0.000828  -0.001154  -0.000110   0.000074  -0.005458  -0.000437
     64      -0.000145  -0.002879  -0.000056   0.000234  -0.003991  -0.001784
     65      -0.000750   0.000133  -0.000042  -0.000576   0.003621  -0.000795
     66      -0.000034   0.001594   0.000012  -0.000108   0.000701   0.004298
     67      -0.002360  -0.009442   0.000124   0.001067  -0.014245  -0.000477
     68       0.002000   0.006967   0.000171  -0.000631  -0.002213   0.003843
                 60         61         62         63         64         65    
      0      -0.039356   0.008371  -0.015404   0.013297   0.001219   0.002324
      1      -0.039083   0.002384  -0.054848   0.047866   0.003970  -0.000839
      2      -0.067337   0.023913   0.037707  -0.033397  -0.000688   0.005147
      3      -0.001036   0.000907   0.000190   0.001755  -0.000122  -0.000015
      4      -0.004088   0.008668  -0.002752   0.006959  -0.000764  -0.000887
      5      -0.001492   0.002432  -0.000538  -0.000024  -0.000261   0.000021
      6      -0.009962  -0.033102   0.036460   0.035895  -0.001253   0.000608
      7       0.021522   0.076202   0.023143   0.038389  -0.009989  -0.000699
      8       0.008202   0.028318  -0.043301  -0.044542   0.001154  -0.000618
      9       0.000086  -0.001174   0.000806  -0.000274  -0.002881   0.005792
     10      -0.000202   0.000773  -0.000330  -0.000040   0.001034  -0.003447
     11       0.000100   0.000216  -0.000129   0.000626  -0.000087  -0.000649
     12       0.003946  -0.009429  -0.001442  -0.004341  -0.064618   0.005066
     13      -0.002526   0.001349  -0.001653   0.000747  -0.004418   0.000229
     14      -0.007902  -0.002054  -0.007325   0.000131  -0.061525   0.003110
     15      -0.002573   0.001330  -0.000959   0.001386   0.003306   0.049654
     16      -0.007468   0.000323   0.002263  -0.001663  -0.005131  -0.081517
     17      -0.000376  -0.000029   0.000204  -0.000171  -0.000345  -0.008438
     18       0.000163  -0.000099   0.000031  -0.000018  -0.000147  -0.001586
     19       0.000175   0.000070  -0.000061   0.000086   0.000395   0.002643
     20       0.000086  -0.000036   0.000022   0.000059   0.000127   0.000229
     21       0.498165  -0.140983  -0.055798   0.049608  -0.002202  -0.039659
     22       0.037547  -0.013012  -0.016311   0.013229   0.001166  -0.003687
     23       0.452917  -0.126455  -0.040176   0.037757  -0.002934  -0.037078
     24      -0.097591   0.055596   0.184914  -0.166804  -0.007140   0.010790
     25      -0.150440   0.086848   0.295051  -0.260873  -0.012035   0.017046
     26       0.220315  -0.139236  -0.513086   0.454599   0.021228  -0.027554
     27       0.071574  -0.010135   0.050279  -0.042477  -0.006129  -0.000182
     28       0.581273  -0.108025   0.378623  -0.327000  -0.037071  -0.003276
     29       0.131185  -0.021267   0.105034  -0.091425  -0.008989   0.000367
     30       0.005921  -0.017143   0.002018  -0.012434   0.001139   0.002788
     31       0.046593  -0.092385   0.028321  -0.072460   0.007001   0.013604
     32       0.008629  -0.018543   0.004840  -0.012326   0.001694   0.000318
     33      -0.035017  -0.137870  -0.016224  -0.042302   0.017895   0.001607
     34      -0.177747  -0.658487  -0.125694  -0.247446   0.091674   0.006730
     35      -0.045947  -0.173976  -0.043465  -0.078504   0.023383   0.002203
     36      -0.004977  -0.017808  -0.172692  -0.196942   0.017474  -0.001004
     37      -0.000956   0.003150  -0.280268  -0.319135   0.025103  -0.001421
     38       0.012210   0.033905   0.472499   0.545182  -0.045959   0.002051
     39       0.163125   0.549203  -0.247638  -0.192422  -0.018739  -0.008464
     40      -0.076661  -0.258435   0.131828   0.105679   0.006786   0.003995
     41      -0.059261  -0.199469   0.085255   0.065740   0.007308   0.002847
     42      -0.001816   0.016916  -0.006385   0.000345   0.025631  -0.063590
     43       0.001338  -0.007368   0.002895  -0.000505  -0.014215   0.028620
     44      -0.000015  -0.005554   0.002547   0.001187  -0.004036   0.007956
     45      -0.059774   0.075480  -0.012415   0.037144   0.347811  -0.034506
     46       0.029724  -0.039604   0.006619  -0.019693  -0.184280   0.021137
     47       0.001473  -0.004611  -0.001303  -0.002021  -0.030347   0.003321
     48       0.038115   0.026590   0.045171   0.006877   0.472105  -0.027415
     49       0.018453   0.014939   0.022561   0.003546   0.253460  -0.014531
     50       0.052526   0.044914   0.066314   0.012510   0.724189  -0.040966
     51      -0.027220   0.009383  -0.016384   0.007690  -0.047100  -0.000645
     52      -0.017894   0.007273  -0.009893   0.004965  -0.022900  -0.001476
     53       0.042261  -0.019425   0.023021  -0.013416   0.041034   0.002845
     54       0.006093  -0.000725  -0.001525   0.001022   0.004330   0.053097
     55       0.099664  -0.010258  -0.020680   0.012492   0.049027   0.691383
     56       0.005351  -0.001050  -0.000807   0.000095   0.002547   0.037215
     57       0.024062  -0.013406   0.012543  -0.017715  -0.037346  -0.644694
     58      -0.011845   0.006347  -0.005694   0.007823   0.016956   0.272747
     59      -0.001989   0.001840  -0.002000   0.001786   0.004604   0.062678
     60       0.000602   0.000536  -0.000600   0.000562   0.001960   0.016615
     61       0.000023  -0.000341   0.000389  -0.000231  -0.001443  -0.011091
     62      -0.000479  -0.000173   0.000204   0.000180  -0.000350   0.004250
     63      -0.001248   0.000412  -0.000086  -0.000398  -0.000074   0.000021
     64      -0.000791   0.000260  -0.000142  -0.000118  -0.000000   0.000563
     65       0.000016   0.000073  -0.000016  -0.000456  -0.000242   0.000594
     66       0.000355  -0.000312   0.000227  -0.000100  -0.000812   0.001463
     67      -0.001274  -0.000690   0.000477  -0.000786  -0.002430  -0.018503
     68      -0.000523   0.000453   0.000290   0.000287   0.000921  -0.007234
                  66         67         68    
      0      -0.000053   0.000039  -0.000007
      1      -0.000064   0.000048  -0.000029
      2      -0.000087   0.000028   0.000034
      3       0.000139   0.000000   0.000050
      4       0.000097  -0.000037   0.000100
      5       0.000058  -0.000000  -0.000057
      6      -0.000079  -0.000020  -0.000056
      7      -0.000031   0.000057  -0.000034
      8       0.000020   0.000008   0.000046
      9      -0.000571  -0.000608  -0.000446
     10      -0.000013   0.000275   0.000114
     11       0.000299   0.000125  -0.000191
     12      -0.000181   0.000464  -0.000184
     13      -0.000377   0.000511  -0.000270
     14       0.000133  -0.000355   0.000089
     15       0.001398   0.001249   0.001042
     16       0.001140  -0.002278   0.000155
     17      -0.001678   0.000028  -0.000356
     18       0.017547   0.031632   0.067980
     19       0.016805  -0.072558   0.021598
     20      -0.033074  -0.014939   0.038149
     21       0.001031  -0.000168  -0.000049
     22       0.000022   0.000043  -0.000044
     23       0.000428  -0.000365  -0.000127
     24      -0.000172  -0.000005   0.000034
     25      -0.000180  -0.000176   0.000195
     26       0.000680   0.000216  -0.000202
     27       0.000069  -0.000023   0.000001
     28       0.000787  -0.000469   0.000150
     29       0.000270  -0.000291   0.000093
     30       0.000061  -0.000137  -0.000035
     31       0.000673  -0.000471  -0.000194
     32      -0.000435   0.000246  -0.000125
     33       0.000178  -0.000093   0.000018
     34       0.000449  -0.000369   0.000162
     35       0.000268  -0.000286   0.000096
     36       0.000150  -0.000065   0.000275
     37      -0.000092  -0.000140   0.000234
     38       0.000528   0.000086  -0.000325
     39       0.000306   0.000365   0.000307
     40      -0.000155  -0.000155  -0.000160
     41      -0.000159  -0.000067  -0.000035
     42       0.002805   0.004089   0.002251
     43      -0.001345  -0.002913  -0.001325
     44      -0.001497  -0.001917  -0.001395
     45      -0.002363   0.002595  -0.000720
     46       0.000881  -0.001263   0.000287
     47       0.000796  -0.001148   0.000521
     48       0.001087  -0.000687   0.000368
     49       0.001386  -0.000949   0.000542
     50       0.000494   0.001134   0.000008
     51       0.003818  -0.006626   0.002330
     52       0.001826  -0.003599   0.001097
     53      -0.001738   0.004333  -0.002256
     54      -0.001504   0.000666  -0.001390
     55      -0.011134   0.020167  -0.005475
     56       0.003927  -0.001926   0.000428
     57      -0.009497  -0.015916  -0.011606
     58       0.002743   0.007558   0.003884
     59       0.004786   0.004179   0.002379
     60      -0.527075  -0.599164  -0.417743
     61       0.234460   0.249363   0.191848
     62       0.092336   0.111221   0.087976
     63       0.325472   0.095709  -0.516309
     64       0.147713   0.027920  -0.235568
     65       0.376550   0.103721  -0.621572
     66      -0.045977   0.066504  -0.007123
     67      -0.620510   0.730674  -0.256181
     68      -0.002696  -0.009570   0.009598


-----------
IR SPECTRUM
-----------

 Mode    freq (cm**-1)   T**2         TX         TY         TZ
-------------------------------------------------------------------
   6:        55.62    0.399463  (  0.322598   0.541587   0.045571)
   7:        92.48    7.672589  ( -1.720614   2.059545   0.685822)
   8:       185.56    4.507156  ( -1.466034  -1.197474  -0.961227)
   9:       199.15    0.767053  (  0.735915   0.284125  -0.380466)
  10:       221.11    2.270566  ( -0.821011  -0.949263  -0.833910)
  11:       235.85    0.225220  (  0.269377   0.216162   0.325469)
  12:       257.00    0.053713  ( -0.073315  -0.218896  -0.020569)
  13:       287.16    0.339689  ( -0.466779  -0.348968  -0.005273)
  14:       312.90   12.978682  ( -0.874998  -1.152934  -3.299061)
  15:       331.77    6.142086  ( -0.290203   0.139582  -2.457313)
  16:       435.31    3.874963  (  0.650972   0.326787   1.828773)
  17:       462.48    1.007084  ( -0.673864   0.552018   0.498265)
  18:       550.81    2.123837  ( -0.572915  -0.494395   1.245463)
  19:       769.41    6.458420  (  0.110937   1.584033   1.984175)
  20:       837.66    6.088544  (  0.723278  -2.338956  -0.307731)
  21:       866.31    1.330091  ( -0.494112   0.181340  -1.026187)
  22:       924.83    8.134779  ( -1.367204  -0.506428  -2.451339)
  23:       932.86    2.831711  (  0.149902  -1.125784  -1.241713)
  24:       954.26   14.580008  (  0.285889  -0.819620   3.718400)
  25:       968.86    2.904873  ( -1.249272   1.123537  -0.286106)
  26:       981.22    2.684144  ( -1.221265   0.906435   0.609124)
  27:      1009.01   10.158088  (  2.293039   2.131922   0.595791)
  28:      1050.74    1.107543  ( -0.777623   0.388370  -0.593307)
  29:      1085.10   21.913518  ( -1.509396  -0.471203  -4.406043)
  30:      1141.72    5.572976  (  0.762320  -0.220410   2.223345)
  31:      1194.57    2.133803  ( -0.570577  -1.340520  -0.106074)
  32:      1202.42    2.689362  (  1.538705   0.002820   0.567223)
  33:      1217.66    2.174576  ( -1.012073  -1.015462   0.345140)
  34:      1309.41    2.536176  (  0.785659   1.227977  -0.641084)
  35:      1334.62    3.027465  (  0.795436  -0.925759   1.240047)
  36:      1345.21    7.750956  (  1.124255  -1.487914  -2.067152)
  37:      1366.47    0.451050  ( -0.209886   0.495269   0.402128)
  38:      1387.42    0.635434  ( -0.056966  -0.664853   0.436073)
  39:      1403.17    7.494223  ( -2.253207   1.211772  -0.974110)
  40:      1409.58    3.735979  (  1.835586   0.280463  -0.536603)
  41:      1420.54    8.622525  (  1.190944   2.676531  -0.200891)
  42:      1427.79   12.535158  (  0.838123  -1.681423  -3.000921)
  43:      1471.57    8.414915  (  0.062104  -0.186932   2.894152)
  44:      1478.28   26.575948  ( -1.044414   1.654543  -4.769448)
  45:      1489.67   27.450060  (  1.951999   2.354117  -4.254162)
  46:      1493.75   46.086413  (  1.826915  -0.334486  -6.529695)
  47:      1495.95   18.077267  (  1.101392  -2.420509   3.317430)
  48:      1499.05   23.437692  (  0.478964   0.940677   4.724766)
  49:      1505.90   14.285366  ( -1.662953   0.357702   3.375204)
  50:      1512.27   62.356344  ( -5.216592  -3.832037   4.523163)
  51:      1652.39   48.426100  ( -4.185749   5.543927  -0.412885)
  52:      1664.62   36.756349  (  3.252680   3.267826   3.936717)
  53:      3009.98   11.158007  (  3.016160  -0.799111  -1.192563)
  54:      3022.14   22.253347  ( -0.387431   4.486214   1.406103)
  55:      3037.56   26.860438  (  0.993925   2.158954  -4.605591)
  56:      3052.09   21.929380  ( -4.193662   1.007186  -1.824322)
  57:      3054.75    2.868045  ( -0.951769  -1.369501  -0.294359)
  58:      3096.93    1.715086  ( -0.939834  -0.505913  -0.758848)
  59:      3104.75   17.405509  (  3.412637   0.305764  -2.380321)
  60:      3121.73   21.512329  ( -2.786052  -1.031415  -3.561801)
  61:      3126.78   22.843610  ( -1.320347   3.892025   2.439761)
  62:      3136.35    2.744913  (  1.001566  -1.205760  -0.536582)
  63:      3139.76   17.849893  (  1.587894   3.080385  -2.416550)
  64:      3152.48    1.961766  ( -1.168614  -0.281734  -0.718842)
  65:      3158.53    2.118518  (  0.870267  -1.160665   0.118363)
  66:      3422.60   33.674084  ( -1.814686  -1.890756   5.177455)
  67:      3500.58   92.692415  ( -3.279579   8.475048   3.179675)
  68:      3514.44  102.375346  ( -8.125384  -2.672149  -5.404914)

The first frequency considered to be a vibration is 6
The total number of vibrations considered is 63


--------------------------
THERMOCHEMISTRY AT 298.15K
--------------------------

Temperature         ... 298.15 K
Pressure            ... 1.00 atm
Total Mass          ... 102.20 AMU

Throughout the following assumptions are being made:
  (1) The electronic state is orbitally nondegenerate
  (2) There are no thermally accessible electronically excited states
  (3) Hindered rotations indicated by low frequency modes) are not
      treated as such but are treated as vibrations and this may
      case some error
  (4) All equations used are the standard statistical mechanics
      equations for an ideal gas
  (5) All vibrations are strinctly harmonic


------------
INNER ENERGY
------------

The inner energy is: U= E(el) + E(ZPE) + E(vib) + E(rot) + E(trans)
    E(el)   - is the total energy from the electronic structure calculation
              = E(kin-el) + E(nuc-el) + E(el-el) + E(nuc-nuc)
    E(ZPE)  - the the zero temperature vibrational energy from the frequency calculation
    E(vib)  - the the finite temperature correction to E(ZPE) due to population
              of excietd vibrational states
    E(rot)  - is the rotational thermal energy
    E(trans)- is the translational thermal energy

Summary of contributions to the inner energy U:
Electronic energy                ...   -292.53762430 Eh
Zero point energy                ...      0.22117118 Eh     138.79 kcal/mol
Thermal vibrational correction   ...      0.00689341 Eh       4.33 kcal/mol
Thermal rotational correction    ...      0.00141627 Eh       0.89 kcal/mol
Thermal translational correction ...      0.00141627 Eh       0.89 kcal/mol
-----------------------------------------------------------------------
Total thermal energy                   -292.30672717 Eh


Summary of corrections to the electronic energy:
(perhaps to be used in another calculation)
Total thermal correction                  0.00972595 Eh       6.10 kcal/mol
Non-thermal (ZPE) correction              0.22117118 Eh     138.79 kcal/mol
-----------------------------------------------------------------------
Total correction                          0.23089713 Eh     144.89 kcal/mol


--------
ENTHALPY
--------

The enthalpy is H = U + kB*T
                kB is Boltzmann's constant
Total free energy                 ...   -292.30672717 Eh 
Thermal Enthalpy correction       ...      0.00094421 Eh       0.59 kcal/mol
-----------------------------------------------------------------------
Total Enthalpy                    ...   -292.30578296 Eh


-------
ENTROPY
-------

The entropy contributions are T*S = T*(S(el)+S(vib)+S(rot)+S(trans)
     S(el)   - electronic entropy
     S(vib)  - vibrational entropy
     S(rot)  - rotational entropy
     S(trans)- translational entropy
The entropies will be listed as mutliplied by the temperature to get
units of energy

Electronic entropy                ...      0.00000000 Eh      0.00 kcal/mol
Vibrational entropy               ...      0.01242982 Eh      7.80 kcal/mol
Rotational entropy                ...      0.01229620 Eh      7.72 kcal/mol
Translational entropy             ...      0.01890208 Eh     11.86 kcal/mol
-----------------------------------------------------------------------
Final entropy term                ...      0.04362809 Eh     27.38 kcal/mol


CAUTION: The rotational entropy is not quite correctly treated here
         because it includes a symmetry number that is not yet correctly
         implemented in ORCA!
For a nonlinear molecule the correct rotational entropy is:
    S(rot) = R*(ln(qrot/sn)+1.5)
    R    = 8.31441 J/mol/K = 1.987191683e-3 kcal/mol/K
    qrot = 303080.2697726
    sn is the rotational symmetry number. We have assumed 3 here
       if it is different for your molecule then you should correct
       the printed rotational entropy by manually evaluating the equation
       as given above

For convenience we print out the resulting values for sn=1 - 12:
 sn= 1  qrot/sn=  303080.2698 T*S(rot)=     8.37 kcal/mol T*S(tot)=    28.03 kcal/mol
 sn= 2  qrot/sn=  151540.1349 T*S(rot)=     7.96 kcal/mol T*S(tot)=    27.62 kcal/mol
 sn= 3  qrot/sn=  101026.7566 T*S(rot)=     7.72 kcal/mol T*S(tot)=    27.38 kcal/mol
 sn= 4  qrot/sn=   75770.0674 T*S(rot)=     7.55 kcal/mol T*S(tot)=    27.21 kcal/mol
 sn= 5  qrot/sn=   60616.0540 T*S(rot)=     7.41 kcal/mol T*S(tot)=    27.07 kcal/mol
 sn= 6  qrot/sn=   50513.3783 T*S(rot)=     7.31 kcal/mol T*S(tot)=    26.97 kcal/mol
 sn= 7  qrot/sn=   43297.1814 T*S(rot)=     7.21 kcal/mol T*S(tot)=    26.87 kcal/mol
 sn= 8  qrot/sn=   37885.0337 T*S(rot)=     7.13 kcal/mol T*S(tot)=    26.80 kcal/mol
 sn= 9  qrot/sn=   33675.5855 T*S(rot)=     7.07 kcal/mol T*S(tot)=    26.73 kcal/mol
 sn=10  qrot/sn=   30308.0270 T*S(rot)=     7.00 kcal/mol T*S(tot)=    26.66 kcal/mol
 sn=11  qrot/sn=   27552.7518 T*S(rot)=     6.95 kcal/mol T*S(tot)=    26.61 kcal/mol
 sn=12  qrot/sn=   25256.6891 T*S(rot)=     6.89 kcal/mol T*S(tot)=    26.56 kcal/mol


-------------------
GIBBS FREE ENTHALPY
-------------------

The Gibbs free enthalpy is G = H - T*S

Total enthalpy                    ...   -292.30578296 Eh 
Total entropy correction          ...     -0.04362809 Eh    -27.38 kcal/mol
-----------------------------------------------------------------------
Final Gibbs free enthalpy         ...   -292.34941105 Eh

For completeness - the Gibbs free enthalpy minus the electronic energy
G-E(el)                           ...      0.18821325 Eh    118.11 kcal/mol


Timings for individual modules:

Sum of individual times         ...     3506.645 sec (=  58.444 min)
GTO integral calculation        ...       10.807 sec (=   0.180 min)   0.3 %
SCF iterations                  ...      322.236 sec (=   5.371 min)   9.2 %
SCF Gradient evaluation         ...      195.276 sec (=   3.255 min)   5.6 %
Geometry relaxation             ...        0.389 sec (=   0.006 min)   0.0 %
Analytical frequency calculation...     2977.937 sec (=  49.632 min)  84.9 %
                             ****ORCA TERMINATED NORMALLY****
TOTAL RUN TIME: 0 days 0 hours 58 minutes 28 seconds 597 msec
