
                                 *****************
                                 * O   R   C   A *
                                 *****************

           --- An Ab Initio, DFT and Semiempirical electronic structure package ---

                  #######################################################
                  #                        -***-                        #
                  #  Department of molecular theory and spectroscopy    #
                  #              Directorship: Frank Neese              #
                  # Max Planck Institute for Chemical Energy Conversion #
                  #                  D-45470 Muelheim/Ruhr              #
                  #                       Germany                       #
                  #                                                     #
                  #                  All rights reserved                #
                  #                        -***-                        #
                  #######################################################


                         Program Version 3.0.3 - RELEASE   -


 With contributions from (in alphabetic order):
   Ute Becker             : Parallelization
   Dmytro Bykov           : SCF Hessian
   Dmitry Ganyushin       : Spin-Orbit,Spin-Spin,Magnetic field MRCI
   Andreas Hansen         : Spin unrestricted coupled pair/coupled cluster methods
   Dimitrios Liakos       : Extrapolation schemes; parallel MDCI
   Robert Izsak           : Overlap fitted RIJCOSX, COSX-SCS-MP3
   Christian Kollmar      : KDIIS, OOCD, Brueckner-CCSD(T), CCSD density
   Simone Kossmann        : Meta GGA functionals, TD-DFT gradient, OOMP2, MP2 Hessian
   Taras Petrenko         : DFT Hessian,TD-DFT gradient, ASA and ECA modules, normal mode analysis, Resonance Raman, ABS, FL, XAS/XES, NRVS
   Christoph Reimann      : Effective Core Potentials
   Michael Roemelt        : Restricted open shell CIS
   Christoph Riplinger    : Improved optimizer, TS searches, QM/MM, DLPNO-CCSD
   Barbara Sandhoefer     : DKH picture change effects
   Igor Schapiro          : Molecular dynamics
   Kantharuban Sivalingam : CASSCF convergence, NEVPT2
   Boris Wezisla          : Elementary symmetry handling
   Frank Wennmohs         : Technical directorship


 We gratefully acknowledge several colleagues who have allowed us to
 interface, adapt or use parts of their codes:
   Stefan Grimme, W. Hujo, H. Kruse, T. Risthaus : VdW corrections, initial TS optimization,
                                                   DFT functionals, gCP
   Ed Valeev                                     : LibInt (2-el integral package), F12 methods
   Garnet Chan, S. Sharma, R. Olivares           : DMRG
   Ulf Ekstrom                                   : XCFun DFT Library
   Mihaly Kallay                                 : mrcc  (arbitrary order and MRCC methods)
   Andreas Klamt, Michael Diedenhofen            : otool_cosmo (COSMO solvation model)
   Frank Weinhold                                : gennbo (NPA and NBO analysis)
   Christopher J. Cramer and Donald G. Truhlar   : smd solvation model


 Your calculation uses the libint2 library for the computation of 2-el integrals
 For citations please refer to: http://libint.valeyev.net

 This ORCA versions uses:
   CBLAS   interface :  Fast vector & matrix operations
   LAPACKE interface :  Fast linear algebra routines
   SCALAPACK package :  Parallel linear algebra routines


Your calculation utilizes the basis: Ahlrichs-TZV
Cite in your paper:
H - Kr: A. Schaefer, H. Horn and R. Ahlrichs, J. Chem. Phys. 97, 2571 (1992).

The def2-TZV basis will be loaded
Cite in your paper:
 	F. Weigend, R. Ahlrichs, Phys. Chem. Chem. Phys. 2005, 7, 3297.

================================================================================
                                        WARNINGS
                       Please study these warnings very carefully!
================================================================================
Now building the actual basis set
WARNING: Geometry optimizations can change the point-group symmetry!

WARNING: Geometry Optimization
  ===> : Switching off AutoStart
         For restart on a previous wavefunction, please use MOREAD


INFO   : the flag for use of LIBINT has been found!

================================================================================
                                       INPUT FILE
================================================================================
NAME = 2168_+.inp
|  1> ! NORI PBE0 def2-TZVP UseSym TightOPT Freq TightSCF Grid3 FinalGrid5 XYZFile
|  2> % pal
|  3>     nprocs 8
|  4> end
|  5> %method
|  6>     SymThresh 5.0e-2
|  7> end
|  8> % geom 
|  9>     MaxIter 10
| 10> end 
| 11> % maxcore 2000
| 12> % output
| 13>     printlevel mini
| 14>     print[ P_Basis ] 0
| 15>     print[ P_SCFInfo ] 1
| 16>     print[ P_SCFIterInfo ] 1
| 17>     print[ P_OrbEn ] 0
| 18>     print[ P_Cartesian ] 0
| 19> end
| 20> % elprop
| 21>     Dipole false
| 22> end
| 23> *xyz 1 1
| 24>  C        1.9617533048     2.0128775635    -1.1847135928 
| 25>  C        2.1915897011     0.6955437152    -0.4606095743 
| 26>  C        2.7129573705    -0.4593861681    -1.3243452663 
| 27>  C        1.6936125604    -0.9172437223    -2.3590137334 
| 28>  C        4.0396098038    -0.1417420998    -2.0245394329 
| 29>  C        5.1291690899     0.2606588166    -1.0589661560 
| 30>  N        6.4327687712     0.4574051597    -1.7946336496 
| 31>  H        1.5694883634     2.7625044464    -0.4956520856 
| 32>  H        1.2407044055     1.9117066647    -1.9978005823 
| 33>  H        2.8811640831     2.4266471846    -1.6120792956 
| 34>  H        2.8651313931     0.8567216641     0.3897558176 
| 35>  H        1.2504655644     0.3648626419    -0.0121561793 
| 36>  H        2.8999910268    -1.3044385465    -0.6492829575 
| 37>  H        1.4833598222    -0.1371121956    -3.0945448308 
| 38>  H        0.7511781724    -1.1826359483    -1.8773696933 
| 39>  H        2.0459007999    -1.7980229971    -2.9014257900 
| 40>  H        3.8834648285     0.6574187556    -2.7593098878 
| 41>  H        4.3575181273    -1.0315776857    -2.5821317654 
| 42>  H        5.3159007646    -0.5030004227    -0.3020869725 
| 43>  H        4.9194379917     1.2057844789    -0.5571754610 
| 44>  H        6.7163892686    -0.4039952130    -2.2664059446 
| 45>  H        7.1900900864     0.7376515731    -1.1683284765 
| 46>  H        6.3350547002     1.1780623346    -2.5132344899 
| 47> *
| 48> 
| 49>                          ****END OF INPUT****
================================================================================

The point group is C1 - hence turning off symmetry
If this is a round-off problem, please increase the symmetry
        detection tolerance (%method SymThresh)


                       *****************************
                       * Geometry Optimization Run *
                       *****************************

Geometry optimization settings:
Update method            Update   .... BFGS
Choice of coordinates    CoordSys .... Redundant Internals
Initial Hessian          InHess   .... Almoef's Model

Convergence Tolerances:
Energy Change            TolE     ....  1.0000e-06 Eh
Max. Gradient            TolMAXG  ....  1.0000e-04 Eh/bohr
RMS Gradient             TolRMSG  ....  3.0000e-05 Eh/bohr
Max. Displacement        TolMAXD  ....  1.0000e-03 bohr
RMS Displacement         TolRMSD  ....  6.0000e-04 bohr

------------------------------------------------------------------------------
                        ORCA OPTIMIZATION COORDINATE SETUP
------------------------------------------------------------------------------

The optimization will be done in new redundant internal coordinates
Making redundant internal coordinates   ...  (new redundants) done
Evaluating the initial hessian          ...  (Almloef) done
Evaluating the coordinates              ...  done
Calculating the B-matrix                .... done
Calculating the G-matrix                .... done
Diagonalizing the G-matrix              .... done
Small eigenvalue found = 1.649e-02
The first mode is                       ....   55
The number of degrees of freedom        ....   63

    -----------------------------------------------------------------
                    Redundant Internal Coordinates


    -----------------------------------------------------------------
         Definition                    Initial Value    Approx d2E/dq
    -----------------------------------------------------------------
      1. B(C   1,C   0)                  1.5207         0.386562   
      2. B(C   2,C   1)                  1.5335         0.368756   
      3. B(C   3,C   2)                  1.5229         0.383441   
      4. B(C   4,C   2)                  1.5334         0.368999   
      5. B(C   5,C   4)                  1.5104         0.401422   
      6. B(N   6,C   5)                  1.5097         0.360456   
      7. B(H   7,C   0)                  1.0912         0.358576   
      8. B(H   8,C   0)                  1.0914         0.358190   
      9. B(H   9,C   0)                  1.0951         0.353464   
     10. B(H  10,C   1)                  1.0967         0.351341   
     11. B(H  11,C   1)                  1.0937         0.355241   
     12. B(H  12,C   2)                  1.0976         0.350139   
     13. B(H  13,C   3)                  1.0926         0.356651   
     14. B(H  14,C   3)                  1.0911         0.358589   
     15. B(H  15,C   3)                  1.0927         0.356488   
     16. B(H  16,C   4)                  1.0968         0.351241   
     17. B(H  17,C   4)                  1.0972         0.350739   
     18. B(H  18,C   5)                  1.0913         0.358400   
     19. B(H  19,C   5)                  1.0904         0.359528   
     20. B(H  20,N   6)                  1.0223         0.413648   
     21. B(H  21,N   6)                  1.0219         0.414160   
     22. B(H  22,N   6)                  1.0224         0.413454   
     23. A(C   1,C   0,H   8)          111.9795         0.325861   
     24. A(C   1,C   0,H   7)          110.4119         0.325919   
     25. A(C   1,C   0,H   9)          112.7217         0.325150   
     26. A(H   7,C   0,H   8)          107.2552         0.290403   
     27. A(H   8,C   0,H   9)          107.3950         0.289750   
     28. A(H   7,C   0,H   9)          106.7801         0.289799   
     29. A(C   0,C   1,H  10)          109.5556         0.324828   
     30. A(C   2,C   1,H  10)          109.7919         0.322324   
     31. A(H  10,C   1,H  11)          104.7722         0.289101   
     32. A(C   0,C   1,C   2)          115.8231         0.364671   
     33. A(C   2,C   1,H  11)          107.2048         0.322908   
     34. A(C   0,C   1,H  11)          109.0933         0.325418   
     35. A(C   1,C   2,C   4)          113.2866         0.361785   
     36. A(C   4,C   2,H  12)          107.0317         0.322178   
     37. A(C   3,C   2,C   4)          109.3385         0.364206   
     38. A(C   1,C   2,C   3)          112.4281         0.364165   
     39. A(C   1,C   2,H  12)          106.9386         0.322143   
     40. A(C   3,C   2,H  12)          107.4837         0.324213   
     41. A(H  14,C   3,H  15)          107.5485         0.290188   
     42. A(H  13,C   3,H  15)          107.6613         0.289941   
     43. A(C   2,C   3,H  15)          111.3326         0.325172   
     44. A(H  13,C   3,H  14)          107.7346         0.290209   
     45. A(C   2,C   3,H  14)          110.5697         0.325486   
     46. A(C   2,C   3,H  13)          111.8083         0.325196   
     47. A(C   5,C   4,H  17)          109.3864         0.326758   
     48. A(C   2,C   4,H  17)          108.3459         0.322268   
     49. A(C   5,C   4,H  16)          109.6848         0.326835   
     50. A(C   2,C   4,H  16)          109.4928         0.322344   
     51. A(C   2,C   4,C   5)          112.7920         0.367076   
     52. A(H  16,C   4,H  17)          106.9618         0.288512   
     53. A(C   4,C   5,N   6)          110.2477         0.363329   
     54. A(H  18,C   5,H  19)          108.6797         0.290551   
     55. A(N   6,C   5,H  19)          106.1027         0.320418   
     56. A(C   4,C   5,H  19)          112.7273         0.328093   
     57. A(N   6,C   5,H  18)          106.3443         0.320254   
     58. A(C   4,C   5,H  18)          112.3570         0.327923   
     59. A(H  21,N   6,H  22)          107.9562         0.298969   
     60. A(H  20,N   6,H  22)          107.2237         0.298910   
     61. A(C   5,N   6,H  22)          110.5991         0.325072   
     62. A(H  20,N   6,H  21)          107.9575         0.298991   
     63. A(C   5,N   6,H  21)          112.1472         0.325163   
     64. A(C   5,N   6,H  20)          110.7709         0.325097   
     65. D(C   2,C   1,C   0,H   9)    -62.0668         0.011889   
     66. D(C   2,C   1,C   0,H   8)     59.1668         0.011889   
     67. D(H  11,C   1,C   0,H   8)    -61.8466         0.011889   
     68. D(H  11,C   1,C   0,H   9)    176.9198         0.011889   
     69. D(H  10,C   1,C   0,H   7)    -56.5676         0.011889   
     70. D(H  11,C   1,C   0,H   7)     57.5929         0.011889   
     71. D(C   2,C   1,C   0,H   7)    178.6064         0.011889   
     72. D(H  10,C   1,C   0,H   8)   -176.0071         0.011889   
     73. D(H  10,C   1,C   0,H   9)     62.7593         0.011889   
     74. D(C   3,C   2,C   1,H  10)    168.6935         0.010875   
     75. D(C   3,C   2,C   1,H  11)     55.4208         0.010875   
     76. D(C   3,C   2,C   1,C   0)    -66.6021         0.010875   
     77. D(C   4,C   2,C   1,H  10)    -66.7193         0.010875   
     78. D(C   4,C   2,C   1,H  11)   -179.9920         0.010875   
     79. D(C   4,C   2,C   1,C   0)     57.9850         0.010875   
     80. D(H  12,C   2,C   1,H  11)    -62.3194         0.010875   
     81. D(H  12,C   2,C   1,H  10)     50.9533         0.010875   
     82. D(H  12,C   2,C   1,C   0)    175.6576         0.010875   
     83. D(H  15,C   3,C   2,C   1)   -174.7541         0.011707   
     84. D(H  14,C   3,C   2,H  12)     62.1542         0.011707   
     85. D(H  15,C   3,C   2,C   4)     58.5115         0.011707   
     86. D(H  14,C   3,C   2,C   4)    178.0028         0.011707   
     87. D(H  14,C   3,C   2,C   1)    -55.2628         0.011707   
     88. D(H  13,C   3,C   2,C   4)    -61.9581         0.011707   
     89. D(H  13,C   3,C   2,H  12)   -177.8067         0.011707   
     90. D(H  15,C   3,C   2,H  12)    -57.3371         0.011707   
     91. D(H  13,C   3,C   2,C   1)     64.7763         0.011707   
     92. D(H  16,C   4,C   2,C   1)    -66.0324         0.010888   
     93. D(C   5,C   4,C   2,H  12)    -61.2165         0.010888   
     94. D(C   5,C   4,C   2,C   3)   -177.3531         0.010888   
     95. D(C   5,C   4,C   2,C   1)     56.4018         0.010888   
     96. D(H  17,C   4,C   2,H  12)     60.0267         0.010888   
     97. D(H  17,C   4,C   2,C   3)    -56.1098         0.010888   
     98. D(H  17,C   4,C   2,C   1)    177.6450         0.010888   
     99. D(H  16,C   4,C   2,H  12)    176.3493         0.010888   
    100. D(H  16,C   4,C   2,C   3)     60.2128         0.010888   
    101. D(H  19,C   5,C   4,H  17)    173.4086         0.012782   
    102. D(H  19,C   5,C   4,H  16)     56.3852         0.012782   
    103. D(H  19,C   5,C   4,C   2)    -65.9412         0.012782   
    104. D(H  18,C   5,C   4,H  17)    -63.3793         0.012782   
    105. D(H  18,C   5,C   4,H  16)    179.5973         0.012782   
    106. D(H  18,C   5,C   4,C   2)     57.2709         0.012782   
    107. D(N   6,C   5,C   4,H  17)     55.0476         0.012782   
    108. D(N   6,C   5,C   4,H  16)    -61.9757         0.012782   
    109. D(N   6,C   5,C   4,C   2)    175.6979         0.012782   
    110. D(H  22,N   6,C   5,H  19)    -63.3442         0.011943   
    111. D(H  22,N   6,C   5,H  18)   -178.9423         0.011943   
    112. D(H  22,N   6,C   5,C   4)     59.0063         0.011943   
    113. D(H  21,N   6,C   5,H  19)     57.2239         0.011943   
    114. D(H  21,N   6,C   5,H  18)    -58.3741         0.011943   
    115. D(H  21,N   6,C   5,C   4)    179.5745         0.011943   
    116. D(H  20,N   6,C   5,H  19)    177.9134         0.011943   
    117. D(H  20,N   6,C   5,H  18)     62.3154         0.011943   
    118. D(H  20,N   6,C   5,C   4)    -59.7361         0.011943   
    -----------------------------------------------------------------

Number of atoms                         .... 23
Number of degrees of freedom            .... 118

         *************************************************************
         *                GEOMETRY OPTIMIZATION CYCLE   1            *
         *************************************************************


           ************************************************************
           *        Program running with 8 parallel MPI-processes     *
           *              working on a common directory               *
           ************************************************************
           ************************************************************
           *              Shut down parallel processing               *
           ************************************************************


           ************************************************************
           *        Program running with 8 parallel MPI-processes     *
           *              working on a common directory               *
           ************************************************************
------------
SCF SETTINGS
------------
Hamiltonian:
 Density Functional     Method          .... DFT(GTOs)
 Exchange Functional    Exchange        .... PBE
   PBE kappa parameter  XKappa          ....  0.804000
 Correlation Functional Correlation     .... PBE
 LDA part of GGA corr.  LDAOpt          .... PW91-LDA
 Gradients option       PostSCFGGA      .... off
 Hybrid DFT is turned on
   Fraction HF Exchange ScalHFX         ....  0.250000
   Scaling of DF-GGA-X  ScalDFX         ....  0.750000
   Scaling of DF-GGA-C  ScalDFC         ....  1.000000
   Scaling of DF-LDA-C  ScalLDAC        ....  1.000000
   Perturbative correction              ....  0.000000
   NL short-range parameter             ....  6.900000


General Settings:
 Integral files         IntName         .... 2168_+
 Hartree-Fock type      HFTyp           .... RHF
 Total Charge           Charge          ....    1
 Multiplicity           Mult            ....    1
 Number of Electrons    NEL             ....   58
 Basis Dimension        Dim             ....  313
 Nuclear Repulsion      ENuc            ....    341.6509051077 Eh

Convergence Acceleration:
 DIIS                   CNVDIIS         .... on
   Start iteration      DIISMaxIt       ....    12
   Startup error        DIISStart       ....  0.200000
   # of expansion vecs  DIISMaxEq       ....     5
   Bias factor          DIISBfac        ....   1.050
   Max. coefficient     DIISMaxC        ....  10.000
 Newton-Raphson         CNVNR           .... off
 SOSCF                  CNVSOSCF        .... on
   Start iteration      SOSCFMaxIt      ....   150
   Startup grad/error   SOSCFStart      ....  0.003300
 Level Shifting         CNVShift        .... on
   Level shift para.    LevelShift      ....    0.2500
   Turn off err/grad.   ShiftErr        ....    0.0010
 Zerner damping         CNVZerner       .... off
 Static damping         CNVDamp         .... on
   Fraction old density DampFac         ....    0.7000
   Max. Damping (<1)    DampMax         ....    0.9800
   Min. Damping (>=0)   DampMin         ....    0.0000
   Turn off err/grad.   DampErr         ....    0.1000
 Fernandez-Rico         CNVRico         .... off

SCF Procedure:
 Maximum # iterations   MaxIter         ....   125
 SCF integral mode      SCFMode         .... Direct
   Integral package                     .... LIBINT
 Reset frequeny         DirectResetFreq ....    20
 Integral Threshold     Thresh          ....  2.500e-11 Eh
 Primitive CutOff       TCut            ....  2.500e-12 Eh

Convergence Tolerance:
 Convergence Check Mode ConvCheckMode   .... Total+1el-Energy
 Energy Change          TolE            ....  1.000e-08 Eh
 1-El. energy change                    ....  1.000e-05 Eh
 Orbital Gradient       TolG            ....  1.000e-05
 Orbital Rotation angle TolX            ....  1.000e-05
 DIIS Error             TolErr          ....  5.000e-07


Diagonalization of the overlap matrix:
Smallest eigenvalue                        ... 1.113e-04
Time for diagonalization                   ...    0.102 sec
Threshold for overlap eigenvalues          ... 1.000e-08
Number of eigenvalues below threshold      ... 0
Time for construction of square roots      ...    0.019 sec
Total time needed                          ...    0.122 sec

-------------------
DFT GRID GENERATION
-------------------

General Integration Accuracy     IntAcc      ...  4.340
Radial Grid Type                 RadialGrid  ... Gauss-Chebyshev
Angular Grid (max. acc.)         AngularGrid ... Lebedev-194
Angular grid pruning method      GridPruning ... 3 (G Style)
Weight generation scheme         WeightScheme... Becke
Basis function cutoff            BFCut       ...    1.0000e-11
Integration weight cutoff        WCut        ...    1.0000e-14
Grids for H and He will be reduced by one unit

# of grid points (after initial pruning)     ...  47458 (   0.0 sec)
# of grid points (after weights+screening)   ...  42751 (   0.2 sec)
nearest neighbour list constructed           ...    0.0 sec
Grid point re-assignment to atoms done       ...    0.0 sec
Grid point division into batches done        ...    0.1 sec
Reduced shell lists constructed in    0.3 sec

Total number of grid points                  ...    42751
Total number of batches                      ...      678
Average number of points per batch           ...       63
Average number of grid points per atom       ...     1859
Average number of shells per batch           ...   110.99 (78.72%)
Average number of basis functions per batch  ...   253.83 (81.09%)
Average number of large shells per batch     ...    90.06 (81.14%)
Average number of large basis fcns per batch ...   205.69 (81.03%)
Maximum spatial batch extension              ...   2.77,  2.39,  2.67 au
Average spatial batch extension              ...   0.15,  0.15,  0.15 au

Time for grid setup =    0.459 sec

Loading Hartree-Fock densities                     ... done
Calculating cut-offs                               ... done
Setting up the integral package                    ... done
Initializing the effective Hamiltonian             ... done
Starting the Coulomb interaction                   ... done (   0.1 sec)
Reading the grid                                   ... done
Mapping shells                                     ... done
Starting the XC term evaluation                    ... done (   0.5 sec)
  promolecular density results
     # of electrons  =     58.990588426
     EX              =    -42.009251043
     EC              =     -1.924405369
     EX+EC           =    -43.933656412
Transforming the Hamiltonian                       ... done (   0.0 sec)
Diagonalizing the Hamiltonian                      ... done (   0.2 sec)
Back transforming the eigenvectors                 ... done (   0.0 sec)
Now organizing SCF variables                       ... done
--------------
SCF ITERATIONS
--------------
ITER       Energy         Delta-E        Max-DP      RMS-DP      [F,P]     Damp
               ***  Starting incremental Fock matrix formation  ***
  0   -292.3048292742   0.000000000000 0.03350796  0.00085624  0.1878810 0.7000
  1   -292.4098337104  -0.105004436197 0.02278312  0.00066794  0.1002650 0.7000
                               ***Turning on DIIS***
  2   -292.4546351024  -0.044801391970 0.04807173  0.00125308  0.0400975 0.0000
  3   -292.5187701812  -0.064135078809 0.01474006  0.00043130  0.0523383 0.0000
  4   -292.5361455426  -0.017375361424 0.00407999  0.00013580  0.0086601 0.0000
                      *** Initiating the SOSCF procedure ***
                           *** Shutting down DIIS ***
                      *** Re-Reading the Fockian *** 
                      *** Removing any level shift *** 
ITER      Energy       Delta-E        Grad      Rot      Max-DP    RMS-DP
  5   -292.53676672  -0.0006211808  0.000491  0.000491  0.002056  0.000058
               *** Restarting incremental Fock matrix formation ***
  6   -292.53680481  -0.0000380905  0.000162  0.000426  0.001550  0.000037
  7   -292.53680680  -0.0000019813  0.000113  0.000109  0.000306  0.000008
  8   -292.53680870  -0.0000019018  0.000015  0.000053  0.000143  0.000004
  9   -292.53680873  -0.0000000280  0.000011  0.000010  0.000026  0.000001
 10   -292.53680874  -0.0000000135  0.000004  0.000006  0.000021  0.000001
                  ***Gradient check signals convergence***
              ***Rediagonalizing the Fockian in SOSCF/NRSCF***

               *****************************************************
               *                     SUCCESS                       *
               *           SCF CONVERGED AFTER  11 CYCLES          *
               *****************************************************

Setting up the final grid:

General Integration Accuracy     IntAcc      ...  5.010
Radial Grid Type                 RadialGrid  ... Gauss-Chebyshev
Angular Grid (max. acc.)         AngularGrid ... Lebedev-434
Angular grid pruning method      GridPruning ... 3 (G Style)
Weight generation scheme         WeightScheme... Becke
Basis function cutoff            BFCut       ...    1.0000e-11
Integration weight cutoff        WCut        ...    1.0000e-14
Grids for H and He will be reduced by one unit

# of grid points (after initial pruning)     ... 181850 (   0.0 sec)
# of grid points (after weights+screening)   ... 161423 (   2.0 sec)
nearest neighbour list constructed           ...    0.0 sec
Grid point re-assignment to atoms done       ...    0.1 sec
Grid point division into batches done        ...    1.2 sec
Reduced shell lists constructed in    1.5 sec

Total number of grid points                  ...   161423
Total number of batches                      ...     2535
Average number of points per batch           ...       63
Average number of grid points per atom       ...     7018
Average number of shells per batch           ...   107.64 (76.34%)
Average number of basis functions per batch  ...   245.39 (78.40%)
Average number of large shells per batch     ...    86.13 (80.02%)
Average number of large basis fcns per batch ...   195.41 (79.63%)
Maximum spatial batch extension              ...   2.65,  2.31,  2.04 au
Average spatial batch extension              ...   0.10,  0.10,  0.10 au

Final grid set up in    3.8 sec
Final integration                            ... done (   1.1 sec)
Change in XC energy                          ...     0.000488070
Integrated number of electrons               ...    58.000050326
Previous integrated no of electrons          ...    58.000408053
Total Energy       :         -292.53632067 Eh           -7960.31798 eV
  Last Energy change         ...    1.0942e-10  Tolerance :   1.0000e-08
  Last MAX-Density change    ...    5.1898e-06  Tolerance :   1.0000e-07
             **** THE GBW FILE WAS UPDATED (2168_+.gbw) ****
             **** DENSITY FILE WAS UPDATED (2168_+.scfp.tmp) ****
             **** ENERGY FILE WAS UPDATED (2168_+.en.tmp) ****
Total SCF time: 0 days 0 hours 1 min 46 sec 
           ************************************************************
           *              Shut down parallel processing               *
           ************************************************************

-------------------------   --------------------
FINAL SINGLE POINT ENERGY      -292.536320668897
-------------------------   --------------------



           ************************************************************
           *        Program running with 8 parallel MPI-processes     *
           *              working on a common directory               *
           ************************************************************
------------------------------------------------------------------------------
                         ORCA SCF GRADIENT CALCULATION
------------------------------------------------------------------------------

Gradient of the Kohn-Sham DFT energy:
Kohn-Sham wavefunction type      ... RKS
Hartree-Fock exchange scaling    ...    0.250
Number of operators              ...    1
Number of atoms                  ...   23
Basis set dimensions             ...  313
Integral neglect threshold       ... 2.5e-11
Integral primitive cutoff        ... 2.5e-12

Nuclear repulsion gradient       ... done
One Electron Gradient            ... done
Pre-screening matrix             ... done
Starting the two electron gradient:
Two electron gradient done
Exchange-correlation gradient    ... done

------------------
CARTESIAN GRADIENT
------------------

   1   C   :   -0.000115783    0.000018913    0.000003554
   2   C   :    0.000235446   -0.000078211    0.000148387
   3   C   :    0.000003452   -0.000027037   -0.000021672
   4   C   :    0.000155544    0.000113935   -0.000135490
   5   C   :    0.000065125    0.000076165   -0.000117939
   6   C   :   -0.000231817   -0.000129942    0.000064235
   7   N   :   -0.000009677   -0.000022001   -0.000040803
   8   H   :    0.000079381    0.000076592    0.000049221
   9   H   :   -0.000004839   -0.000000452   -0.000039139
  10   H   :   -0.000090504   -0.000004019    0.000005368
  11   H   :   -0.000078158    0.000025866   -0.000060527
  12   H   :   -0.000067713   -0.000015420    0.000018407
  13   H   :   -0.000026637   -0.000001572   -0.000022259
  14   H   :    0.000002115   -0.000024763   -0.000022834
  15   H   :   -0.000068505   -0.000086708    0.000080894
  16   H   :   -0.000092900   -0.000003490    0.000002945
  17   H   :    0.000002416   -0.000083004   -0.000009093
  18   H   :   -0.000084792   -0.000011521    0.000086453
  19   H   :    0.000045015    0.000011853   -0.000023422
  20   H   :    0.000253502    0.000126298   -0.000007385
  21   H   :    0.000014583    0.000026547    0.000038756
  22   H   :   -0.000007569    0.000048069    0.000015122
  23   H   :    0.000022314   -0.000036099   -0.000012779

Norm of the cartesian gradient     ...    0.000660692
RMS gradient                       ...    0.000079538
MAX gradient                       ...    0.000253502

-------
TIMINGS
-------

Total SCF gradient time            ...       43.381 sec

One electron gradient       ....       0.282 sec  (  0.6%)
Prescreening matrices       ....       0.310 sec  (  0.7%)
Two electron gradient       ....      35.622 sec  ( 82.1%)
XC gradient                 ....       5.696 sec  ( 13.1%)
           ************************************************************
           *              Shut down parallel processing               *
           ************************************************************
------------------------------------------------------------------------------
                         ORCA GEOMETRY RELAXATION STEP
------------------------------------------------------------------------------

Reading the OPT-File                    .... done
Getting information on internals        .... done
Copying old internal coords+grads       .... done
Making the new internal coordinates     .... (new redundants).... done
Validating the new internal coordinates .... (new redundants).... done
Calculating the B-matrix                .... done
Calculating the G,G- and P matrices     .... done
Transforming gradient to internals      .... done
Projecting the internal gradient        .... done
Number of atoms                         ....  23
Number of internal coordinates          .... 118
Current Energy                          ....  -292.536320669 Eh
Current gradient norm                   ....     0.000660692 Eh/bohr
Maximum allowed component of the step   ....  0.300
Current trust radius                    ....  0.300
Evaluating the initial hessian          ....  (Almloef) done
Projecting the Hessian                  .... done
Forming the augmented Hessian           .... done
Diagonalizing the augmented Hessian     .... done
Last element of RFO vector              ....  0.999844376
Lowest eigenvalues of augmented Hessian:
 -0.000004782  0.010875136  0.010890424  0.011707386  0.011890462
Length of the computed step             ....  0.017644257
The final length of the internal step   ....  0.017644257
Converting the step to cartesian space:
 Initial RMS(Int)=    0.0016242855
Transforming coordinates:
 Iter   0:  RMS(Cart)=    0.0052171288 RMS(Int)=    0.0016244347
 Iter   1:  RMS(Cart)=    0.0000092690 RMS(Int)=    0.0000054539
 Iter   2:  RMS(Cart)=    0.0000000371 RMS(Int)=    0.0000000146
done
Storing new coordinates                 .... done

                                .--------------------.
          ----------------------|Geometry convergence|---------------------
          Item                value                 Tolerance   Converged
          -----------------------------------------------------------------
          RMS gradient        0.00005770            0.00003000      NO
          MAX gradient        0.00027937            0.00010000      NO
          RMS step            0.00162429            0.00060000      NO
          MAX step            0.00514647            0.00100000      NO
          ....................................................
          Max(Bonds)      0.0004      Max(Angles)    0.05
          Max(Dihed)        0.29      Max(Improp)    0.00
          -----------------------------------------------------------------

The optimization has not yet converged - more geometry cycles are needed


    ---------------------------------------------------------------------------
                         Redundant Internal Coordinates
                            (Angstroem and degrees)

        Definition                    Value    dE/dq     Step     New-Value
    ----------------------------------------------------------------------------
     1. B(C   1,C   0)                1.5207 -0.000159  0.0002    1.5209   
     2. B(C   2,C   1)                1.5335 -0.000070  0.0001    1.5336   
     3. B(C   3,C   2)                1.5229  0.000048 -0.0001    1.5228   
     4. B(C   4,C   2)                1.5334 -0.000003  0.0000    1.5334   
     5. B(C   5,C   4)                1.5104  0.000070 -0.0001    1.5103   
     6. B(N   6,C   5)                1.5097 -0.000008  0.0000    1.5097   
     7. B(H   7,C   0)                1.0912  0.000081 -0.0001    1.0910   
     8. B(H   8,C   0)                1.0914  0.000025 -0.0000    1.0914   
     9. B(H   9,C   0)                1.0951 -0.000022  0.0000    1.0951   
    10. B(H  10,C   1)                1.0967 -0.000025  0.0000    1.0967   
    11. B(H  11,C   1)                1.0937 -0.000006  0.0000    1.0937   
    12. B(H  12,C   2)                1.0976  0.000017 -0.0000    1.0976   
    13. B(H  13,C   3)                1.0926  0.000022 -0.0000    1.0926   
    14. B(H  14,C   3)                1.0911 -0.000095  0.0001    1.0913   
    15. B(H  15,C   3)                1.0927  0.000083 -0.0001    1.0926   
    16. B(H  16,C   4)                1.0968  0.000062 -0.0001    1.0967   
    17. B(H  17,C   4)                1.0972  0.000103 -0.0002    1.0970   
    18. B(H  18,C   5)                1.0913 -0.000021  0.0000    1.0913   
    19. B(H  19,C   5)                1.0904  0.000279 -0.0004    1.0900   
    20. B(H  20,N   6)                1.0223 -0.000013  0.0000    1.0223   
    21. B(H  21,N   6)                1.0219  0.000042 -0.0001    1.0219   
    22. B(H  22,N   6)                1.0224  0.000041 -0.0001    1.0223   
    23. A(C   1,C   0,H   8)          111.98  0.000010   -0.00    111.98   
    24. A(C   1,C   0,H   7)          110.41  0.000016   -0.00    110.41   
    25. A(C   1,C   0,H   9)          112.72 -0.000109    0.02    112.75   
    26. A(H   7,C   0,H   8)          107.26  0.000022   -0.01    107.24   
    27. A(H   8,C   0,H   9)          107.40  0.000039   -0.00    107.39   
    28. A(H   7,C   0,H   9)          106.78  0.000030   -0.00    106.78   
    29. A(C   0,C   1,H  10)          109.56  0.000045   -0.01    109.55   
    30. A(C   2,C   1,H  10)          109.79 -0.000053    0.02    109.81   
    31. A(H  10,C   1,H  11)          104.77 -0.000019    0.01    104.78   
    32. A(C   0,C   1,C   2)          115.82 -0.000013    0.00    115.82   
    33. A(C   2,C   1,H  11)          107.20 -0.000014   -0.00    107.20   
    34. A(C   0,C   1,H  11)          109.09  0.000053   -0.02    109.07   
    35. A(C   1,C   2,C   4)          113.29 -0.000190    0.05    113.33   
    36. A(C   4,C   2,H  12)          107.03  0.000056   -0.01    107.03   
    37. A(C   3,C   2,C   4)          109.34  0.000060   -0.02    109.32   
    38. A(C   1,C   2,C   3)          112.43  0.000138   -0.04    112.39   
    39. A(C   1,C   2,H  12)          106.94 -0.000005    0.01    106.95   
    40. A(C   3,C   2,H  12)          107.48 -0.000059    0.00    107.49   
    41. A(H  14,C   3,H  15)          107.55 -0.000069    0.02    107.57   
    42. A(H  13,C   3,H  15)          107.66  0.000002   -0.00    107.66   
    43. A(C   2,C   3,H  15)          111.33 -0.000035    0.01    111.34   
    44. A(H  13,C   3,H  14)          107.73 -0.000037   -0.00    107.73   
    45. A(C   2,C   3,H  14)          110.57  0.000098   -0.02    110.55   
    46. A(C   2,C   3,H  13)          111.81  0.000034   -0.01    111.80   
    47. A(C   5,C   4,H  17)          109.39  0.000027   -0.01    109.38   
    48. A(C   2,C   4,H  17)          108.35  0.000055   -0.02    108.33   
    49. A(C   5,C   4,H  16)          109.68  0.000012    0.01    109.69   
    50. A(C   2,C   4,H  16)          109.49  0.000030    0.00    109.49   
    51. A(C   2,C   4,C   5)          112.79 -0.000097    0.02    112.81   
    52. A(H  16,C   4,H  17)          106.96 -0.000022    0.00    106.96   
    53. A(C   4,C   5,N   6)          110.25  0.000092   -0.02    110.23   
    54. A(H  18,C   5,H  19)          108.68 -0.000005    0.01    108.69   
    55. A(N   6,C   5,H  19)          106.10 -0.000062    0.02    106.12   
    56. A(C   4,C   5,H  19)          112.73  0.000003   -0.00    112.73   
    57. A(N   6,C   5,H  18)          106.34 -0.000011   -0.00    106.34   
    58. A(C   4,C   5,H  18)          112.36 -0.000020   -0.00    112.35   
    59. A(H  21,N   6,H  22)          107.96  0.000026   -0.00    107.95   
    60. A(H  20,N   6,H  22)          107.22 -0.000004   -0.00    107.22   
    61. A(C   5,N   6,H  22)          110.60 -0.000010   -0.00    110.60   
    62. A(H  20,N   6,H  21)          107.96 -0.000019    0.01    107.97   
    63. A(C   5,N   6,H  21)          112.15 -0.000043    0.01    112.16   
    64. A(C   5,N   6,H  20)          110.77  0.000050   -0.01    110.76   
    65. D(C   2,C   1,C   0,H   9)    -62.07  0.000055   -0.19    -62.25   
    66. D(C   2,C   1,C   0,H   8)     59.17  0.000033   -0.18     58.99   
    67. D(H  11,C   1,C   0,H   8)    -61.85  0.000020   -0.16    -62.00   
    68. D(H  11,C   1,C   0,H   9)    176.92  0.000042   -0.17    176.75   
    69. D(H  10,C   1,C   0,H   7)    -56.57  0.000034   -0.18    -56.74   
    70. D(H  11,C   1,C   0,H   7)     57.59  0.000065   -0.18     57.41   
    71. D(C   2,C   1,C   0,H   7)    178.61  0.000078   -0.20    178.41   
    72. D(H  10,C   1,C   0,H   8)   -176.01 -0.000011   -0.15   -176.16   
    73. D(H  10,C   1,C   0,H   9)     62.76  0.000011   -0.16     62.60   
    74. D(C   3,C   2,C   1,H  10)    168.69 -0.000052    0.11    168.80   
    75. D(C   3,C   2,C   1,H  11)     55.42  0.000003    0.09     55.51   
    76. D(C   3,C   2,C   1,C   0)    -66.60 -0.000046    0.12    -66.49   
    77. D(C   4,C   2,C   1,H  10)    -66.72 -0.000012    0.09    -66.63   
    78. D(C   4,C   2,C   1,H  11)   -179.99  0.000044    0.07   -179.92   
    79. D(C   4,C   2,C   1,C   0)     57.99 -0.000005    0.10     58.08   
    80. D(H  12,C   2,C   1,H  11)    -62.32  0.000001    0.10    -62.22   
    81. D(H  12,C   2,C   1,H  10)     50.95 -0.000055    0.12     51.07   
    82. D(H  12,C   2,C   1,C   0)    175.66 -0.000048    0.13    175.78   
    83. D(H  15,C   3,C   2,C   1)   -174.75 -0.000036    0.03   -174.72   
    84. D(H  14,C   3,C   2,H  12)     62.15 -0.000045    0.05     62.21   
    85. D(H  15,C   3,C   2,C   4)     58.51  0.000064    0.01     58.52   
    86. D(H  14,C   3,C   2,C   4)    178.00  0.000020    0.04    178.04   
    87. D(H  14,C   3,C   2,C   1)    -55.26 -0.000081    0.05    -55.21   
    88. D(H  13,C   3,C   2,C   4)    -61.96  0.000062    0.01    -61.94   
    89. D(H  13,C   3,C   2,H  12)   -177.81 -0.000003    0.03   -177.78   
    90. D(H  15,C   3,C   2,H  12)    -57.34 -0.000001    0.03    -57.31   
    91. D(H  13,C   3,C   2,C   1)     64.78 -0.000039    0.03     64.81   
    92. D(H  16,C   4,C   2,C   1)    -66.03 -0.000088    0.27    -65.76   
    93. D(C   5,C   4,C   2,H  12)    -61.22 -0.000039    0.26    -60.96   
    94. D(C   5,C   4,C   2,C   3)   -177.35 -0.000032    0.27   -177.09   
    95. D(C   5,C   4,C   2,C   1)     56.40 -0.000118    0.29     56.70   
    96. D(H  17,C   4,C   2,H  12)     60.03 -0.000030    0.24     60.27   
    97. D(H  17,C   4,C   2,C   3)    -56.11 -0.000022    0.26    -55.85   
    98. D(H  17,C   4,C   2,C   1)    177.65 -0.000109    0.28    177.93   
    99. D(H  16,C   4,C   2,H  12)    176.35 -0.000009    0.24    176.59   
   100. D(H  16,C   4,C   2,C   3)     60.21 -0.000001    0.25     60.46   
   101. D(H  19,C   5,C   4,H  17)    173.41 -0.000013    0.02    173.43   
   102. D(H  19,C   5,C   4,H  16)     56.39 -0.000009    0.02     56.41   
   103. D(H  19,C   5,C   4,C   2)    -65.94  0.000012    0.01    -65.93   
   104. D(H  18,C   5,C   4,H  17)    -63.38 -0.000033    0.04    -63.34   
   105. D(H  18,C   5,C   4,H  16)    179.60 -0.000029    0.04    179.64   
   106. D(H  18,C   5,C   4,C   2)     57.27 -0.000008    0.02     57.29   
   107. D(N   6,C   5,C   4,H  17)     55.05  0.000002    0.02     55.07   
   108. D(N   6,C   5,C   4,H  16)    -61.98  0.000006    0.02    -61.96   
   109. D(N   6,C   5,C   4,C   2)    175.70  0.000027    0.00    175.70   
   110. D(H  22,N   6,C   5,H  19)    -63.34 -0.000016    0.03    -63.32   
   111. D(H  22,N   6,C   5,H  18)   -178.94  0.000023    0.01   -178.93   
   112. D(H  22,N   6,C   5,C   4)     59.01  0.000001    0.02     59.03   
   113. D(H  21,N   6,C   5,H  19)     57.22 -0.000018    0.03     57.25   
   114. D(H  21,N   6,C   5,H  18)    -58.37  0.000021    0.01    -58.37   
   115. D(H  21,N   6,C   5,C   4)    179.57 -0.000001    0.03    179.60   
   116. D(H  20,N   6,C   5,H  19)    177.91 -0.000037    0.04    177.95   
   117. D(H  20,N   6,C   5,H  18)     62.32  0.000002    0.02     62.33   
   118. D(H  20,N   6,C   5,C   4)    -59.74 -0.000020    0.04    -59.70   
    ----------------------------------------------------------------------------

         *************************************************************
         *                GEOMETRY OPTIMIZATION CYCLE   2            *
         *************************************************************
---------------------------------
CARTESIAN COORDINATES (ANGSTROEM)
---------------------------------
  C      1.814550   -0.002080   -1.479166
  C      0.544144    0.830477   -1.401069
  C     -0.694149    0.110008   -0.853719
  C     -1.175585   -0.999986   -1.778471
  C     -0.493191   -0.456451    0.556929
  C     -0.081645    0.597116    1.557802
  N     -0.002581   -0.000424    2.942004
  H      2.629089    0.585801   -1.904934
  H      1.687237   -0.883240   -2.110456
  H      2.154483   -0.348936   -0.497651
  H      0.735458    1.737869   -0.815509
  H      0.291910    1.192264   -2.401910
  H     -1.496235    0.856481   -0.789048
  H     -0.441490   -1.804820   -1.862690
  H     -1.358514   -0.610684   -2.781408
  H     -2.109458   -1.439339   -1.419763
  H      0.260362   -1.252706    0.527625
  H     -1.434226   -0.918123    0.880584
  H     -0.800394    1.416146    1.617549
  H      0.904685    1.012313    1.350652
  H     -0.907581   -0.383494    3.223582
  H      0.280525    0.687112    3.642980
  H      0.671413   -0.768812    2.964109

----------------------------
CARTESIAN COORDINATES (A.U.)
----------------------------
  NO LB      ZA    FRAG    MASS        X           Y           Z
   0 C     6.0000    0    12.011          3.429003414446877         -0.003931120268950         -2.795217997391547
   1 C     6.0000    0    12.011          1.028283339246236          1.569374554142576         -2.647635782748480
   2 C     6.0000    0    12.011         -1.311751115989881          0.207884874479316         -1.613295908504962
   3 C     6.0000    0    12.011         -2.221533272017779         -1.889699951743210         -3.360822916089731
   4 C     6.0000    0    12.011         -0.931995679134152         -0.862568028401044          1.052444034138239
   5 C     6.0000    0    12.011         -0.154287031283271          1.128386049694622          2.943819169389245
   6 N     7.0000    0    14.007         -0.004877414095718         -0.000802144138145          5.559582556327009
   7 H     1.0000    0     1.008          4.968258740858831          1.107002895728041         -3.599804257116769
   8 H     1.0000    0     1.008          3.188415206287948         -1.669081363572839         -3.988183917838334
   9 H     1.0000    0     1.008          4.071382088706918         -0.659393901207546         -0.940424091992088
  10 H     1.0000    0     1.008          1.389814993745286          3.284097036406693         -1.541088645733396
  11 H     1.0000    0     1.008          0.551629959238340          2.253051628939010         -4.538952166955878
  12 H     1.0000    0     1.008         -2.827475268469084          1.618515323330370         -1.491084014614626
  13 H     1.0000    0     1.008         -0.834294586807745         -3.410616317656201         -3.519974551774461
  14 H     1.0000    0     1.008         -2.567220246932679         -1.154025982772101         -5.256098727650590
  15 H     1.0000    0     1.008         -3.986298586905014         -2.719956490185177         -2.682963224928537
  16 H     1.0000    0     1.008          0.492012682495300         -2.367270906379845          0.997066857002125
  17 H     1.0000    0     1.008         -2.710294855060238         -1.735001218573393          1.664062667428936
  18 H     1.0000    0     1.008         -1.512524662368765          2.676128549328706          3.056724521580710
  19 H     1.0000    0     1.008          1.709606940776412          1.912994220154019          2.552361451174836
  20 H     1.0000    0     1.008         -1.715080357958157         -0.724699553582512          6.091686452575539
  21 H     1.0000    0     1.008          0.530115329757229          1.298454206367616          6.884234585708261
  22 H     1.0000    0     1.008          1.268786034211737         -1.452844369995619          5.601354663712743

--------------------------------
INTERNAL COORDINATES (ANGSTROEM)
--------------------------------
 C      0   0   0   0.000000     0.000     0.000
 C      1   0   0   1.520915     0.000     0.000
 C      2   1   0   1.533635   115.823     0.000
 C      3   2   1   1.522837   112.393   293.514
 C      3   2   1   1.533359   113.332    58.083
 C      5   3   2   1.510338   112.809    56.697
 N      6   5   3   1.509742   110.228   175.701
 H      1   2   3   1.091035   110.407   178.407
 H      1   2   3   1.091411   111.976    58.991
 H      1   2   3   1.095095   112.746   297.745
 H      2   1   3   1.096741   109.549   124.850
 H      2   1   3   1.093707   109.070   239.005
 H      3   2   1   1.097610   106.952   175.783
 H      4   3   2   1.092587   111.797    64.808
 H      4   3   2   1.091284   110.552   304.791
 H      4   3   2   1.092622   111.343   185.276
 H      5   3   2   1.096687   109.493   294.242
 H      5   3   2   1.097014   108.329   177.928
 H      6   5   3   1.091320   112.355    57.294
 H      6   5   3   1.090022   112.727   294.067
 H      7   6   5   1.022279   110.762   300.299
 H      7   6   5   1.021872   112.157   179.600
 H      7   6   5   1.022338   110.599    59.031

---------------------------
INTERNAL COORDINATES (A.U.)
---------------------------
 C      0   0   0   0.000000     0.000     0.000
 C      1   0   0   2.874113     0.000     0.000
 C      2   1   0   2.898150   115.823     0.000
 C      3   2   1   2.877745   112.393   293.514
 C      3   2   1   2.897629   113.332    58.083
 C      5   3   2   2.854125   112.809    56.697
 N      6   5   3   2.853000   110.228   175.701
 H      1   2   3   2.061757   110.407   178.407
 H      1   2   3   2.062468   111.976    58.991
 H      1   2   3   2.069430   112.746   297.745
 H      2   1   3   2.072541   109.549   124.850
 H      2   1   3   2.066807   109.070   239.005
 H      3   2   1   2.074183   106.952   175.783
 H      4   3   2   2.064691   111.797    64.808
 H      4   3   2   2.062228   110.552   304.791
 H      4   3   2   2.064756   111.343   185.276
 H      5   3   2   2.072438   109.493   294.242
 H      5   3   2   2.073057   108.329   177.928
 H      6   5   3   2.062296   112.355    57.294
 H      6   5   3   2.059842   112.727   294.067
 H      7   6   5   1.931827   110.762   300.299
 H      7   6   5   1.931059   112.157   179.600
 H      7   6   5   1.931939   110.599    59.031



           ************************************************************
           *        Program running with 8 parallel MPI-processes     *
           *              working on a common directory               *
           ************************************************************
           ************************************************************
           *              Shut down parallel processing               *
           ************************************************************


           ************************************************************
           *        Program running with 8 parallel MPI-processes     *
           *              working on a common directory               *
           ************************************************************

Diagonalization of the overlap matrix:
Smallest eigenvalue                        ... 1.115e-04
Time for diagonalization                   ...    0.266 sec
Threshold for overlap eigenvalues          ... 1.000e-08
Number of eigenvalues below threshold      ... 0
Time for construction of square roots      ...    0.028 sec
Total time needed                          ...    0.294 sec

-------------------
DFT GRID GENERATION
-------------------

General Integration Accuracy     IntAcc      ...  4.340
Radial Grid Type                 RadialGrid  ... Gauss-Chebyshev
Angular Grid (max. acc.)         AngularGrid ... Lebedev-194
Angular grid pruning method      GridPruning ... 3 (G Style)
Weight generation scheme         WeightScheme... Becke
Basis function cutoff            BFCut       ...    1.0000e-11
Integration weight cutoff        WCut        ...    1.0000e-14
Grids for H and He will be reduced by one unit

# of grid points (after initial pruning)     ...  47458 (   0.0 sec)
# of grid points (after weights+screening)   ...  42749 (   0.2 sec)
nearest neighbour list constructed           ...    0.0 sec
Grid point re-assignment to atoms done       ...    0.0 sec
Grid point division into batches done        ...    0.1 sec
Reduced shell lists constructed in    0.2 sec

Total number of grid points                  ...    42749
Total number of batches                      ...      677
Average number of points per batch           ...       63
Average number of grid points per atom       ...     1859
Average number of shells per batch           ...   110.91 (78.66%)
Average number of basis functions per batch  ...   253.63 (81.03%)
Average number of large shells per batch     ...    89.99 (81.14%)
Average number of large basis fcns per batch ...   205.55 (81.04%)
Maximum spatial batch extension              ...   2.68,  2.55,  2.20 au
Average spatial batch extension              ...   0.15,  0.16,  0.15 au

Time for grid setup =    0.595 sec

--------------
SCF ITERATIONS
--------------
ITER       Energy         Delta-E        Max-DP      RMS-DP      [F,P]     Damp
               ***  Starting incremental Fock matrix formation  ***
                      *** Initiating the SOSCF procedure ***
                      *** Re-Reading the Fockian *** 
                      *** Removing any level shift *** 
ITER      Energy       Delta-E        Grad      Rot      Max-DP    RMS-DP
  0   -292.53678990 -292.5367899036  0.000337  0.000337  0.000449  0.000014
               *** Restarting incremental Fock matrix formation ***
  1   -292.53680685  -0.0000169508  0.000113  0.000164  0.000215  0.000006
  2   -292.53680840  -0.0000015459  0.000013  0.000024  0.000054  0.000001
  3   -292.53680842  -0.0000000206  0.000007  0.000007  0.000016  0.000000
  4   -292.53680843  -0.0000000090  0.000003  0.000003  0.000011  0.000000
                  ***Gradient check signals convergence***
              ***Rediagonalizing the Fockian in SOSCF/NRSCF***

               *****************************************************
               *                     SUCCESS                       *
               *           SCF CONVERGED AFTER   5 CYCLES          *
               *****************************************************

Setting up the final grid:

General Integration Accuracy     IntAcc      ...  5.010
Radial Grid Type                 RadialGrid  ... Gauss-Chebyshev
Angular Grid (max. acc.)         AngularGrid ... Lebedev-434
Angular grid pruning method      GridPruning ... 3 (G Style)
Weight generation scheme         WeightScheme... Becke
Basis function cutoff            BFCut       ...    1.0000e-11
Integration weight cutoff        WCut        ...    1.0000e-14
Grids for H and He will be reduced by one unit

# of grid points (after initial pruning)     ... 181850 (   0.0 sec)
# of grid points (after weights+screening)   ... 161433 (   0.5 sec)
nearest neighbour list constructed           ...    0.0 sec
Grid point re-assignment to atoms done       ...    0.0 sec
Grid point division into batches done        ...    0.9 sec
Reduced shell lists constructed in    1.3 sec

Total number of grid points                  ...   161433
Total number of batches                      ...     2535
Average number of points per batch           ...       63
Average number of grid points per atom       ...     7019
Average number of shells per batch           ...   107.54 (76.27%)
Average number of basis functions per batch  ...   245.17 (78.33%)
Average number of large shells per batch     ...    86.13 (80.08%)
Average number of large basis fcns per batch ...   195.50 (79.74%)
Maximum spatial batch extension              ...   2.51,  2.07,  1.99 au
Average spatial batch extension              ...   0.10,  0.10,  0.10 au

Final grid set up in    2.4 sec
Final integration                            ... done (   1.2 sec)
Change in XC energy                          ...     0.000483759
Integrated number of electrons               ...    58.000057378
Previous integrated no of electrons          ...    58.000403513
Total Energy       :         -292.53632467 Eh           -7960.31809 eV
  Last Energy change         ...   -1.2251e-09  Tolerance :   1.0000e-08
  Last MAX-Density change    ...    3.4734e-06  Tolerance :   1.0000e-07
             **** THE GBW FILE WAS UPDATED (2168_+.gbw) ****
             **** DENSITY FILE WAS UPDATED (2168_+.scfp.tmp) ****
             **** ENERGY FILE WAS UPDATED (2168_+.en.tmp) ****
Total SCF time: 0 days 0 hours 0 min 48 sec 
           ************************************************************
           *              Shut down parallel processing               *
           ************************************************************

-------------------------   --------------------
FINAL SINGLE POINT ENERGY      -292.536324671924
-------------------------   --------------------



           ************************************************************
           *        Program running with 8 parallel MPI-processes     *
           *              working on a common directory               *
           ************************************************************
------------------------------------------------------------------------------
                         ORCA SCF GRADIENT CALCULATION
------------------------------------------------------------------------------

Gradient of the Kohn-Sham DFT energy:
Kohn-Sham wavefunction type      ... RKS
Hartree-Fock exchange scaling    ...    0.250
Number of operators              ...    1
Number of atoms                  ...   23
Basis set dimensions             ...  313
Integral neglect threshold       ... 2.5e-11
Integral primitive cutoff        ... 2.5e-12

Nuclear repulsion gradient       ... done
One Electron Gradient            ... done
Pre-screening matrix             ... done
Starting the two electron gradient:
Two electron gradient done
Exchange-correlation gradient    ... done

------------------
CARTESIAN GRADIENT
------------------

   1   C   :   -0.000013905    0.000035519   -0.000063707
   2   C   :    0.000140217   -0.000025140    0.000046907
   3   C   :   -0.000028527   -0.000011950   -0.000000443
   4   C   :    0.000114087    0.000057083    0.000002430
   5   C   :    0.000010373    0.000002685   -0.000027979
   6   C   :   -0.000000933   -0.000042692    0.000010775
   7   N   :    0.000002142   -0.000024853   -0.000020661
   8   H   :    0.000021318    0.000014791    0.000053821
   9   H   :    0.000001732    0.000008716   -0.000015751
  10   H   :   -0.000045197   -0.000034590    0.000015787
  11   H   :   -0.000063511    0.000046508   -0.000052208
  12   H   :   -0.000035149   -0.000015752    0.000001486
  13   H   :   -0.000017751   -0.000027543   -0.000009439
  14   H   :    0.000005190   -0.000003204   -0.000012188
  15   H   :   -0.000054685   -0.000022673    0.000005246
  16   H   :   -0.000017599    0.000008733   -0.000001425
  17   H   :   -0.000039478   -0.000040473   -0.000006796
  18   H   :    0.000003131    0.000025751    0.000052127
  19   H   :    0.000021976    0.000021543   -0.000010519
  20   H   :    0.000007415    0.000008493    0.000023422
  21   H   :    0.000004253    0.000010767    0.000033073
  22   H   :   -0.000009166    0.000009772   -0.000015176
  23   H   :   -0.000005934   -0.000001489   -0.000008785

Norm of the cartesian gradient     ...    0.000286898
RMS gradient                       ...    0.000034539
MAX gradient                       ...    0.000140217

-------
TIMINGS
-------

Total SCF gradient time            ...       38.825 sec

One electron gradient       ....       0.274 sec  (  0.7%)
Prescreening matrices       ....       0.475 sec  (  1.2%)
Two electron gradient       ....      32.408 sec  ( 83.5%)
XC gradient                 ....       5.145 sec  ( 13.3%)
           ************************************************************
           *              Shut down parallel processing               *
           ************************************************************
------------------------------------------------------------------------------
                         ORCA GEOMETRY RELAXATION STEP
------------------------------------------------------------------------------

Reading the OPT-File                    .... done
Getting information on internals        .... done
Copying old internal coords+grads       .... done
Making the new internal coordinates     .... (new redundants).... done
Validating the new internal coordinates .... (new redundants).... done
Calculating the B-matrix                .... done
Calculating the G,G- and P matrices     .... done
Transforming gradient to internals      .... done
Projecting the internal gradient        .... done
Number of atoms                         ....  23
Number of internal coordinates          .... 118
Current Energy                          ....  -292.536324672 Eh
Current gradient norm                   ....     0.000286898 Eh/bohr
Maximum allowed component of the step   ....  0.300
Current trust radius                    ....  0.300
Updating the Hessian (BFGS)             .... done
Forming the augmented Hessian           .... done
Diagonalizing the augmented Hessian     .... done
Last element of RFO vector              ....  0.999303621
Lowest eigenvalues of augmented Hessian:
 -0.000005775  0.004029411  0.010891975  0.011581644  0.011782408
Length of the computed step             ....  0.037339190
The final length of the internal step   ....  0.037339190
Converting the step to cartesian space:
 Initial RMS(Int)=    0.0034373511
Transforming coordinates:
 Iter   0:  RMS(Cart)=    0.0095941146 RMS(Int)=    0.0034377689
 Iter   1:  RMS(Cart)=    0.0000352365 RMS(Int)=    0.0000220915
 Iter   2:  RMS(Cart)=    0.0000002766 RMS(Int)=    0.0000001098
 Iter   3:  RMS(Cart)=    0.0000000022 RMS(Int)=    0.0000000014
done
Storing new coordinates                 .... done

                                .--------------------.
          ----------------------|Geometry convergence|---------------------
          Item                value                 Tolerance   Converged
          -----------------------------------------------------------------
          Energy change      -0.00000400            0.00000100      NO
          RMS gradient        0.00002096            0.00003000      YES
          MAX gradient        0.00005040            0.00010000      YES
          RMS step            0.00343735            0.00060000      NO
          MAX step            0.01001609            0.00100000      NO
          ....................................................
          Max(Bonds)      0.0002      Max(Angles)    0.04
          Max(Dihed)        0.57      Max(Improp)    0.00
          -----------------------------------------------------------------

The optimization has not yet converged - more geometry cycles are needed


    ---------------------------------------------------------------------------
                         Redundant Internal Coordinates
                            (Angstroem and degrees)

        Definition                    Value    dE/dq     Step     New-Value
    ----------------------------------------------------------------------------
     1. B(C   1,C   0)                1.5209 -0.000041  0.0002    1.5211   
     2. B(C   2,C   1)                1.5336  0.000021 -0.0000    1.5336   
     3. B(C   3,C   2)                1.5228 -0.000039  0.0001    1.5229   
     4. B(C   4,C   2)                1.5334  0.000034 -0.0001    1.5332   
     5. B(C   5,C   4)                1.5103  0.000007 -0.0001    1.5103   
     6. B(N   6,C   5)                1.5097 -0.000011  0.0000    1.5098   
     7. B(H   7,C   0)                1.0910  0.000002 -0.0001    1.0910   
     8. B(H   8,C   0)                1.0914  0.000003 -0.0000    1.0914   
     9. B(H   9,C   0)                1.0951  0.000011 -0.0000    1.0951   
    10. B(H  10,C   1)                1.0967 -0.000001  0.0000    1.0968   
    11. B(H  11,C   1)                1.0937  0.000002 -0.0000    1.0937   
    12. B(H  12,C   2)                1.0976 -0.000007  0.0000    1.0976   
    13. B(H  13,C   3)                1.0926  0.000007 -0.0000    1.0925   
    14. B(H  14,C   3)                1.0913 -0.000005  0.0001    1.0914   
    15. B(H  15,C   3)                1.0926  0.000012 -0.0001    1.0925   
    16. B(H  16,C   4)                1.0967  0.000002 -0.0000    1.0966   
    17. B(H  17,C   4)                1.0970  0.000002 -0.0001    1.0969   
    18. B(H  18,C   5)                1.0913  0.000002  0.0000    1.0913   
    19. B(H  19,C   5)                1.0900  0.000006 -0.0002    1.0898   
    20. B(H  20,N   6)                1.0223  0.000000  0.0000    1.0223   
    21. B(H  21,N   6)                1.0219 -0.000005 -0.0000    1.0219   
    22. B(H  22,N   6)                1.0223 -0.000004 -0.0000    1.0223   
    23. A(C   1,C   0,H   8)          111.98  0.000001   -0.00    111.97   
    24. A(C   1,C   0,H   7)          110.41  0.000023   -0.02    110.39   
    25. A(C   1,C   0,H   9)          112.75 -0.000045    0.04    112.78   
    26. A(H   7,C   0,H   8)          107.24  0.000008   -0.02    107.22   
    27. A(H   8,C   0,H   9)          107.39  0.000007    0.01    107.40   
    28. A(H   7,C   0,H   9)          106.78  0.000008   -0.00    106.78   
    29. A(C   0,C   1,H  10)          109.55  0.000050   -0.03    109.51   
    30. A(C   2,C   1,H  10)          109.81 -0.000039    0.04    109.85   
    31. A(H  10,C   1,H  11)          104.78 -0.000018    0.03    104.81   
    32. A(C   0,C   1,C   2)          115.82 -0.000012   -0.00    115.82   
    33. A(C   2,C   1,H  11)          107.20 -0.000000    0.00    107.21   
    34. A(C   0,C   1,H  11)          109.07  0.000017   -0.03    109.04   
    35. A(C   1,C   2,C   4)          113.33 -0.000012    0.03    113.36   
    36. A(C   4,C   2,H  12)          107.03  0.000007   -0.00    107.02   
    37. A(C   3,C   2,C   4)          109.32 -0.000004   -0.01    109.31   
    38. A(C   1,C   2,C   3)          112.39  0.000022   -0.03    112.36   
    39. A(C   1,C   2,H  12)          106.95 -0.000007    0.01    106.97   
    40. A(C   3,C   2,H  12)          107.49 -0.000006    0.00    107.49   
    41. A(H  14,C   3,H  15)          107.57 -0.000033    0.04    107.61   
    42. A(H  13,C   3,H  15)          107.66  0.000007   -0.00    107.66   
    43. A(C   2,C   3,H  15)          111.34 -0.000023    0.02    111.36   
    44. A(H  13,C   3,H  14)          107.73 -0.000012   -0.01    107.72   
    45. A(C   2,C   3,H  14)          110.55  0.000049   -0.03    110.52   
    46. A(C   2,C   3,H  13)          111.80  0.000010   -0.02    111.78   
    47. A(C   5,C   4,H  17)          109.38 -0.000013    0.00    109.38   
    48. A(C   2,C   4,H  17)          108.33  0.000023   -0.02    108.30   
    49. A(C   5,C   4,H  16)          109.69  0.000001    0.01    109.70   
    50. A(C   2,C   4,H  16)          109.49  0.000004   -0.00    109.49   
    51. A(C   2,C   4,C   5)          112.81 -0.000005    0.01    112.82   
    52. A(H  16,C   4,H  17)          106.96 -0.000010    0.01    106.97   
    53. A(C   4,C   5,N   6)          110.23  0.000024   -0.02    110.21   
    54. A(H  18,C   5,H  19)          108.69 -0.000007    0.02    108.71   
    55. A(N   6,C   5,H  19)          106.12 -0.000021    0.02    106.14   
    56. A(C   4,C   5,H  19)          112.73  0.000001    0.00    112.73   
    57. A(N   6,C   5,H  18)          106.34 -0.000003   -0.01    106.33   
    58. A(C   4,C   5,H  18)          112.35  0.000004   -0.01    112.34   
    59. A(H  21,N   6,H  22)          107.95  0.000018   -0.01    107.94   
    60. A(H  20,N   6,H  22)          107.22 -0.000006   -0.01    107.21   
    61. A(C   5,N   6,H  22)          110.60 -0.000007    0.00    110.60   
    62. A(H  20,N   6,H  21)          107.97 -0.000013    0.01    107.98   
    63. A(C   5,N   6,H  21)          112.16 -0.000034    0.02    112.18   
    64. A(C   5,N   6,H  20)          110.76  0.000043   -0.02    110.74   
    65. D(C   2,C   1,C   0,H   9)    -62.25  0.000041   -0.40    -62.66   
    66. D(C   2,C   1,C   0,H   8)     58.99  0.000019   -0.37     58.62   
    67. D(H  11,C   1,C   0,H   8)    -62.00  0.000014   -0.35    -62.36   
    68. D(H  11,C   1,C   0,H   9)    176.75  0.000037   -0.39    176.36   
    69. D(H  10,C   1,C   0,H   7)    -56.74  0.000026   -0.39    -57.14   
    70. D(H  11,C   1,C   0,H   7)     57.41  0.000041   -0.40     57.02   
    71. D(C   2,C   1,C   0,H   7)    178.41  0.000045   -0.41    177.99   
    72. D(H  10,C   1,C   0,H   8)   -176.16 -0.000000   -0.35   -176.51   
    73. D(H  10,C   1,C   0,H   9)     62.60  0.000022   -0.38     62.21   
    74. D(C   3,C   2,C   1,H  10)    168.80 -0.000034    0.21    169.01   
    75. D(C   3,C   2,C   1,H  11)     55.51  0.000007    0.16     55.67   
    76. D(C   3,C   2,C   1,C   0)    -66.49 -0.000007    0.19    -66.29   
    77. D(C   4,C   2,C   1,H  10)    -66.63 -0.000032    0.19    -66.44   
    78. D(C   4,C   2,C   1,H  11)   -179.92  0.000009    0.14   -179.78   
    79. D(C   4,C   2,C   1,C   0)     58.08 -0.000005    0.17     58.26   
    80. D(H  12,C   2,C   1,H  11)    -62.22  0.000006    0.16    -62.06   
    81. D(H  12,C   2,C   1,H  10)     51.07 -0.000035    0.21     51.28   
    82. D(H  12,C   2,C   1,C   0)    175.78 -0.000008    0.20    175.98   
    83. D(H  15,C   3,C   2,C   1)   -174.72 -0.000002    0.10   -174.62   
    84. D(H  14,C   3,C   2,H  12)     62.21 -0.000026    0.15     62.35   
    85. D(H  15,C   3,C   2,C   4)     58.52  0.000001    0.10     58.62   
    86. D(H  14,C   3,C   2,C   4)    178.04 -0.000024    0.14    178.18   
    87. D(H  14,C   3,C   2,C   1)    -55.21 -0.000027    0.15    -55.06   
    88. D(H  13,C   3,C   2,C   4)    -61.94  0.000001    0.10    -61.84   
    89. D(H  13,C   3,C   2,H  12)   -177.78 -0.000001    0.11   -177.67   
    90. D(H  15,C   3,C   2,H  12)    -57.31 -0.000002    0.11    -57.20   
    91. D(H  13,C   3,C   2,C   1)     64.81 -0.000002    0.11     64.91   
    92. D(H  16,C   4,C   2,C   1)    -65.76 -0.000043    0.56    -65.19   
    93. D(C   5,C   4,C   2,H  12)    -60.96 -0.000032    0.54    -60.42   
    94. D(C   5,C   4,C   2,C   3)   -177.09 -0.000027    0.54   -176.54   
    95. D(C   5,C   4,C   2,C   1)     56.70 -0.000043    0.57     57.27   
    96. D(H  17,C   4,C   2,H  12)     60.27 -0.000036    0.54     60.81   
    97. D(H  17,C   4,C   2,C   3)    -55.85 -0.000031    0.54    -55.32   
    98. D(H  17,C   4,C   2,C   1)    177.93 -0.000047    0.57    178.49   
    99. D(H  16,C   4,C   2,H  12)    176.59 -0.000032    0.53    177.12   
   100. D(H  16,C   4,C   2,C   3)     60.46 -0.000027    0.53     60.99   
   101. D(H  19,C   5,C   4,H  17)    173.43 -0.000020    0.10    173.53   
   102. D(H  19,C   5,C   4,H  16)     56.41 -0.000001    0.08     56.49   
   103. D(H  19,C   5,C   4,C   2)    -65.93 -0.000004    0.07    -65.86   
   104. D(H  18,C   5,C   4,H  17)    -63.34 -0.000026    0.12    -63.22   
   105. D(H  18,C   5,C   4,H  16)    179.64 -0.000007    0.10    179.73   
   106. D(H  18,C   5,C   4,C   2)     57.29 -0.000009    0.09     57.39   
   107. D(N   6,C   5,C   4,H  17)     55.07 -0.000011    0.08     55.15   
   108. D(N   6,C   5,C   4,H  16)    -61.96  0.000008    0.06    -61.89   
   109. D(N   6,C   5,C   4,C   2)    175.70  0.000006    0.06    175.76   
   110. D(H  22,N   6,C   5,H  19)    -63.32 -0.000005    0.06    -63.26   
   111. D(H  22,N   6,C   5,H  18)   -178.93  0.000015    0.03   -178.91   
   112. D(H  22,N   6,C   5,C   4)     59.03 -0.000002    0.06     59.09   
   113. D(H  21,N   6,C   5,H  19)     57.25 -0.000010    0.06     57.31   
   114. D(H  21,N   6,C   5,H  18)    -58.37  0.000009    0.03    -58.33   
   115. D(H  21,N   6,C   5,C   4)    179.60 -0.000007    0.06    179.66   
   116. D(H  20,N   6,C   5,H  19)    177.95 -0.000020    0.08    178.03   
   117. D(H  20,N   6,C   5,H  18)     62.33 -0.000000    0.05     62.38   
   118. D(H  20,N   6,C   5,C   4)    -59.70 -0.000017    0.08    -59.62   
    ----------------------------------------------------------------------------

         *************************************************************
         *                GEOMETRY OPTIMIZATION CYCLE   3            *
         *************************************************************
---------------------------------
CARTESIAN COORDINATES (ANGSTROEM)
---------------------------------
  C      1.815272   -0.006402   -1.486241
  C      0.547391    0.829808   -1.401873
  C     -0.691186    0.111604   -0.852261
  C     -1.175541   -0.997666   -1.776515
  C     -0.489296   -0.455477    0.557884
  C     -0.087584    0.599354    1.561324
  N     -0.006050   -0.000721    2.944333
  H      2.627948    0.578118   -1.919963
  H      1.681328   -0.888998   -2.114098
  H      2.161852   -0.351149   -0.506337
  H      0.744008    1.735167   -0.814884
  H      0.293186    1.194344   -2.401214
  H     -1.492059    0.859287   -0.786343
  H     -0.443380   -1.804266   -1.860171
  H     -1.356667   -0.608013   -2.779728
  H     -2.110445   -1.434644   -1.417882
  H      0.269887   -1.246310    0.528979
  H     -1.427875   -0.924121    0.878380
  H     -0.813266    1.412206    1.621783
  H      0.895470    1.022791    1.356377
  H     -0.908289   -0.392574    3.222692
  H      0.269506    0.687372    3.647755
  H      0.674595   -0.763219    2.966028

----------------------------
CARTESIAN COORDINATES (A.U.)
----------------------------
  NO LB      ZA    FRAG    MASS        X           Y           Z
   0 C     6.0000    0    12.011          3.430366078890261         -0.012097465077731         -2.808588880100964
   1 C     6.0000    0    12.011          1.034419803643614          1.568109073183717         -2.649155461118963
   2 C     6.0000    0    12.011         -1.306151907862048          0.210900753430107         -1.610539856073009
   3 C     6.0000    0    12.011         -2.221449954749299         -1.885315506173419         -3.357126639781336
   4 C     6.0000    0    12.011         -0.924636252173701         -0.860727286552603          1.054247271470345
   5 C     6.0000    0    12.011         -0.165509677013489          1.132614935525818          2.950474462717020
   6 N     7.0000    0    14.007         -0.011433242359763         -0.001362900704320          5.563983384851795
   7 H     1.0000    0     1.008          4.966102627561350          1.092484087500113         -3.628204097005610
   8 H     1.0000    0     1.008          3.177249933636349         -1.679963693512987         -3.995066377902701
   9 H     1.0000    0     1.008          4.085308243468118         -0.663575701838427         -0.956838236940545
  10 H     1.0000    0     1.008          1.405971306574490          3.278991231138866         -1.539908366124018
  11 H     1.0000    0     1.008          0.554040889531193          2.256982680584482         -4.537637488959867
  12 H     1.0000    0     1.008         -2.819582778150793          1.623817033281769         -1.485972470830046
  13 H     1.0000    0     1.008         -0.837865998569151         -3.409567928789985         -3.515212809675081
  14 H     1.0000    0     1.008         -2.563728818007522         -1.148978222090895         -5.252925117766710
  15 H     1.0000    0     1.008         -3.988162363829545         -2.711083519621940         -2.679409607904615
  16 H     1.0000    0     1.008          0.510012702437052         -2.355185480953031          0.999625603447294
  17 H     1.0000    0     1.008         -2.698291815015303         -1.746334680477420          1.659897020692870
  18 H     1.0000    0     1.008         -1.536849668789348          2.668683278943360          3.064726204888387
  19 H     1.0000    0     1.008          1.692192909225266          1.932794509414114          2.563180133353239
  20 H     1.0000    0     1.008         -1.716417739540990         -0.741856451760476          6.090004778317055
  21 H     1.0000    0     1.008          0.509292250337671          1.298945040870631          6.893257471698120
  22 H     1.0000    0     1.008          1.274799123504217         -1.442275796225353          5.604979834445585

--------------------------------
INTERNAL COORDINATES (ANGSTROEM)
--------------------------------
 C      0   0   0   0.000000     0.000     0.000
 C      1   0   0   1.521146     0.000     0.000
 C      2   1   0   1.533611   115.823     0.000
 C      3   2   1   1.522933   112.363   293.708
 C      3   2   1   1.533248   113.358    58.258
 C      5   3   2   1.510276   112.816    57.271
 N      6   5   3   1.509786   110.205   175.761
 H      1   2   3   1.090972   110.390   177.994
 H      1   2   3   1.091385   111.973    58.621
 H      1   2   3   1.095071   112.782   297.342
 H      2   1   3   1.096763   109.515   124.870
 H      2   1   3   1.093705   109.043   239.022
 H      3   2   1   1.097622   106.965   175.979
 H      4   3   2   1.092548   111.782    64.914
 H      4   3   2   1.091363   110.524   304.937
 H      4   3   2   1.092526   111.363   185.380
 H      5   3   2   1.096637   109.490   294.807
 H      5   3   2   1.096938   108.304   178.494
 H      6   5   3   1.091329   112.343    57.387
 H      6   5   3   1.089815   112.728   294.140
 H      7   6   5   1.022285   110.739   300.380
 H      7   6   5   1.021864   112.179   179.664
 H      7   6   5   1.022327   110.600    59.090

---------------------------
INTERNAL COORDINATES (A.U.)
---------------------------
 C      0   0   0   0.000000     0.000     0.000
 C      1   0   0   2.874549     0.000     0.000
 C      2   1   0   2.898105   115.823     0.000
 C      3   2   1   2.877926   112.363   293.708
 C      3   2   1   2.897418   113.358    58.258
 C      5   3   2   2.854008   112.816    57.271
 N      6   5   3   2.853082   110.205   175.761
 H      1   2   3   2.061639   110.390   177.994
 H      1   2   3   2.062420   111.973    58.621
 H      1   2   3   2.069385   112.782   297.342
 H      2   1   3   2.072582   109.515   124.870
 H      2   1   3   2.066803   109.043   239.022
 H      3   2   1   2.074204   106.965   175.979
 H      4   3   2   2.064616   111.782    64.914
 H      4   3   2   2.062377   110.524   304.937
 H      4   3   2   2.064574   111.363   185.380
 H      5   3   2   2.072343   109.490   294.807
 H      5   3   2   2.072912   108.304   178.494
 H      6   5   3   2.062312   112.343    57.387
 H      6   5   3   2.059452   112.728   294.140
 H      7   6   5   1.931839   110.739   300.380
 H      7   6   5   1.931043   112.179   179.664
 H      7   6   5   1.931917   110.600    59.090



           ************************************************************
           *        Program running with 8 parallel MPI-processes     *
           *              working on a common directory               *
           ************************************************************
           ************************************************************
           *              Shut down parallel processing               *
           ************************************************************


           ************************************************************
           *        Program running with 8 parallel MPI-processes     *
           *              working on a common directory               *
           ************************************************************

Diagonalization of the overlap matrix:
Smallest eigenvalue                        ... 1.120e-04
Time for diagonalization                   ...    0.474 sec
Threshold for overlap eigenvalues          ... 1.000e-08
Number of eigenvalues below threshold      ... 0
Time for construction of square roots      ...    0.041 sec
Total time needed                          ...    0.516 sec

-------------------
DFT GRID GENERATION
-------------------

General Integration Accuracy     IntAcc      ...  4.340
Radial Grid Type                 RadialGrid  ... Gauss-Chebyshev
Angular Grid (max. acc.)         AngularGrid ... Lebedev-194
Angular grid pruning method      GridPruning ... 3 (G Style)
[...]
     59       0.009700   0.011218  -0.002191  -0.001513   0.013799   0.009436
     60       0.004261   0.001799  -0.000536  -0.000920   0.004818   0.001273
     61      -0.000017   0.000527  -0.000047  -0.000165   0.001854   0.000509
     62      -0.006066  -0.002371   0.000584   0.000541  -0.005516  -0.000438
     63       0.000554   0.000335  -0.000248  -0.000020   0.002087  -0.000176
     64       0.001818  -0.000564  -0.000552  -0.000051  -0.000959  -0.000077
     65      -0.002535  -0.000175   0.000295   0.000617  -0.000159  -0.000648
     66      -0.004215  -0.000745   0.000360   0.000567   0.006911  -0.001108
     67       0.001344   0.000579  -0.000478  -0.000420  -0.005904   0.000983
     68      -0.003259  -0.000306   0.000415   0.000084   0.003994   0.000065
                 60         61         62         63         64         65    
      0       0.000783   0.012284   0.010363  -0.021241   0.046127  -0.000045
      1       0.000332  -0.001119   0.010625  -0.029575   0.069090   0.000265
      2       0.000927  -0.080930  -0.014498  -0.001742   0.008569   0.000414
      3      -0.001645  -0.007636  -0.001101  -0.001437   0.001444   0.000435
      4      -0.002340   0.000331   0.000263  -0.002230   0.005656   0.001228
      5      -0.005803  -0.028472  -0.003323  -0.004189   0.003662   0.001359
      6       0.001431  -0.002383   0.006179  -0.001882  -0.002423   0.000755
      7      -0.001756   0.001664  -0.005218   0.002888   0.002243  -0.000477
      8      -0.000086  -0.000128  -0.001036  -0.000959  -0.000059   0.000023
      9      -0.000278  -0.016530   0.083772  -0.005421  -0.015402   0.000519
     10       0.000431   0.002444  -0.015331   0.052441   0.026168   0.000284
     11      -0.000558   0.003526  -0.026925  -0.066280  -0.024107  -0.000560
     12       0.005424  -0.004073   0.002456  -0.000019  -0.000545   0.012616
     13      -0.005949   0.001664  -0.000534   0.000376   0.000246  -0.002212
     14      -0.000023   0.000817  -0.000471   0.000366   0.000279  -0.002581
     15      -0.003613   0.001611  -0.001158  -0.000302  -0.000268   0.093342
     16      -0.067794   0.000406   0.000569   0.000356   0.000377  -0.012497
     17       0.006192  -0.000276   0.000201   0.000045   0.000053  -0.015116
     18       0.000214  -0.000065   0.000097   0.000034  -0.000027  -0.003087
     19       0.002047   0.000044  -0.000015   0.000019  -0.000005   0.000381
     20      -0.000073   0.000063   0.000012   0.000061   0.000015   0.000446
     21      -0.004726  -0.386058  -0.157780   0.224634  -0.478332   0.001134
     22      -0.003417  -0.284139  -0.114197   0.161673  -0.344358   0.001093
     23       0.003101   0.190884   0.084180  -0.126169   0.269971  -0.001026
     24      -0.001002   0.079341   0.003674   0.029946  -0.078782  -0.000616
     25      -0.004033   0.457774   0.015688   0.198455  -0.501167  -0.004285
     26      -0.002891   0.303346   0.005389   0.144099  -0.363217  -0.002866
     27      -0.003466   0.166919   0.031442  -0.002772   0.005705  -0.000882
     28       0.004271  -0.164121  -0.026844  -0.007013   0.017631   0.000334
     29      -0.011482   0.471758   0.084266   0.002831  -0.009795  -0.000881
     30       0.010765   0.019584   0.001970   0.007016  -0.011582  -0.004190
     31       0.044105   0.101043   0.008113   0.034416  -0.063589  -0.017484
     32       0.029081   0.064207   0.005371   0.023653  -0.041250  -0.013027
     33       0.010641   0.070551   0.008713   0.006132  -0.001877  -0.001578
     34      -0.015542  -0.099384  -0.012897  -0.012749   0.000387   0.002073
     35       0.042007   0.271338   0.033507   0.030651  -0.001595  -0.005768
     36      -0.019036   0.021742  -0.063553   0.024844   0.022652  -0.009005
     37       0.017702  -0.019755   0.061345  -0.025502  -0.022423   0.008327
     38      -0.000586  -0.001803   0.006929  -0.001788  -0.002050  -0.001608
     39       0.001607   0.073015  -0.435844   0.219145   0.174709  -0.001110
     40      -0.000998  -0.083833   0.491033  -0.227597  -0.187704   0.001871
     41       0.000451  -0.007179   0.040061  -0.035670  -0.023248   0.000483
     42       0.000929  -0.000414   0.028937   0.128411   0.049728   0.000700
     43      -0.002576  -0.003990  -0.025449  -0.285460  -0.116567  -0.001735
     44       0.006106   0.014846   0.048865   0.729415   0.300794   0.004396
     45       0.000143   0.123699  -0.596722  -0.282518  -0.037877  -0.006680
     46       0.000065   0.058614  -0.281520  -0.114929  -0.010537  -0.003188
     47      -0.000116  -0.048149   0.234913   0.096864   0.008538   0.002370
     48      -0.071557   0.030432  -0.014544   0.005651   0.004586  -0.063725
     49       0.074832  -0.032286   0.014620  -0.004656  -0.004736   0.067415
     50       0.005249  -0.000910  -0.001929   0.000678   0.001674   0.006338
     51       0.009545   0.019896  -0.016469  -0.002610   0.002515  -0.084656
     52       0.005021   0.009668  -0.009110  -0.000825   0.001402  -0.043930
     53      -0.001607  -0.006948   0.008202   0.002327  -0.000679   0.024374
     54      -0.525249  -0.001947   0.008090   0.003748   0.004075  -0.406687
     55       0.558126   0.002455  -0.008010  -0.004404  -0.004725   0.453857
     56       0.044613  -0.000362   0.000082  -0.000738  -0.000896   0.037388
     57       0.565557  -0.017770   0.004256  -0.000808  -0.000098  -0.695407
     58       0.232164  -0.006472   0.001888  -0.000493   0.000023  -0.305631
     59      -0.121702   0.005218  -0.001378  -0.000103  -0.000438   0.144817
     60      -0.011820   0.001371  -0.000446  -0.000094  -0.000132   0.021391
     61      -0.003673   0.000599  -0.000196   0.000114   0.000019   0.005384
     62       0.001407  -0.000559   0.000350   0.000153   0.000239   0.002465
     63      -0.000962  -0.000224  -0.000083  -0.000182  -0.000013  -0.000515
     64      -0.006243  -0.000641  -0.000226  -0.000426  -0.000091   0.001269
     65       0.003922  -0.000528  -0.000186  -0.000252  -0.000248   0.000036
     66       0.010616   0.000076  -0.000652   0.000043   0.000348   0.012335
     67      -0.009826  -0.000368   0.000674   0.000106  -0.000096  -0.010895
     68      -0.004280   0.000617  -0.000044   0.000182   0.000253  -0.007556
                  66         67         68    
      0       0.000000  -0.000019   0.000010
      1       0.000013   0.000027  -0.000023
      2       0.000042  -0.000068   0.000039
      3       0.000003  -0.000008   0.000009
      4       0.000059   0.000038  -0.000012
      5       0.000104   0.000029   0.000040
      6      -0.000063  -0.000048  -0.000027
      7      -0.000132   0.000043   0.000116
      8      -0.000049  -0.000020  -0.000159
      9       0.000014  -0.000047   0.000001
     10       0.000080   0.000012  -0.000066
     11      -0.000020   0.000016   0.000064
     12       0.000111  -0.000891  -0.000084
     13       0.000740   0.000147  -0.000574
     14      -0.000336   0.000208  -0.000035
     15      -0.000145   0.002528   0.000266
     16      -0.001631  -0.000494   0.001042
     17       0.001524  -0.000398  -0.000396
     18       0.001802   0.077500   0.022051
     19      -0.018462  -0.018204   0.070980
     20       0.036468  -0.012938   0.032137
     21       0.000258   0.000010   0.000099
     22       0.000145  -0.000070   0.000104
     23      -0.000152   0.000063  -0.000137
     24      -0.000072   0.000005   0.000004
     25      -0.000379  -0.000043   0.000075
     26      -0.000281   0.000008   0.000057
     27      -0.000264   0.000240  -0.000218
     28       0.000236  -0.000174   0.000076
     29      -0.000234   0.000657  -0.000385
     30      -0.000279  -0.000006  -0.000012
     31      -0.001233  -0.000272  -0.000034
     32      -0.000383  -0.000373  -0.000094
     33      -0.000053   0.000088  -0.000183
     34       0.000118  -0.000023   0.000055
     35      -0.000950   0.000116  -0.000161
     36       0.000491   0.000624   0.000138
     37      -0.000390  -0.000715  -0.000096
     38       0.000012  -0.000114   0.000182
     39       0.000299   0.000229  -0.000196
     40      -0.000372  -0.000308   0.000193
     41      -0.000040  -0.000078   0.000046
     42      -0.000179   0.000036  -0.000004
     43      -0.000085  -0.000009   0.000331
     44      -0.000667  -0.000028  -0.000327
     45      -0.000263   0.000341   0.000299
     46      -0.000116   0.000181   0.000129
     47       0.000150  -0.000057  -0.000049
     48       0.002384   0.004135  -0.001728
     49      -0.001923  -0.002602   0.001447
     50       0.000523   0.000499  -0.000634
     51      -0.002708   0.004259   0.001466
     52      -0.001015   0.001242   0.000600
     53       0.001771  -0.002219  -0.001452
     54      -0.006620  -0.013753   0.005462
     55       0.007871   0.013673  -0.007286
     56      -0.003444  -0.001314   0.000680
     57       0.008274  -0.017962  -0.008834
     58       0.004681  -0.007226  -0.004973
     59      -0.005713   0.006378   0.003067
     60       0.522034  -0.617337  -0.357555
     61       0.220600  -0.277247  -0.141799
     62      -0.144533   0.182665   0.111725
     63      -0.148709   0.016542  -0.218952
     64      -0.389972   0.002219  -0.564939
     65      -0.372802   0.003143  -0.561831
     66      -0.398684  -0.472433   0.271704
     67       0.428758   0.527047  -0.275972
     68       0.004899  -0.006785   0.008068


-----------
IR SPECTRUM
-----------

 Mode    freq (cm**-1)   T**2         TX         TY         TZ
-------------------------------------------------------------------
   6:        66.06    8.087039  (  2.295621  -0.291571  -1.652921)
   7:        88.83    1.081427  (  0.951235  -0.379585   0.180260)
   8:       131.56    1.534787  ( -1.177602  -0.092592   0.373454)
   9:       169.60    5.307681  (  0.706384   2.183727   0.200098)
  10:       220.21    0.566188  (  0.112291   0.463859   0.581733)
  11:       227.99    0.003825  ( -0.019177   0.011221  -0.057721)
  12:       246.13    0.167591  ( -0.148402  -0.011972  -0.381345)
  13:       270.89    1.063593  (  0.125085   0.432654   0.927770)
  14:       325.76   10.915463  ( -0.383324  -0.457222  -3.249534)
  15:       388.52    0.511615  (  0.285733   0.491908   0.433588)
  16:       450.00    3.432074  ( -0.111011  -0.290314  -1.826326)
  17:       538.43    2.303443  (  1.486013   0.303545   0.055399)
  18:       756.83    5.475821  (  1.257394  -0.811687  -1.798874)
  19:       786.76    3.484017  ( -1.786777   0.126760  -0.524762)
  20:       797.52    2.564128  (  1.391972   0.643016   0.461597)
  21:       892.61   16.410631  (  0.617653  -1.726413  -3.612289)
  22:       910.13    9.302764  (  2.403444   0.178424   1.869327)
  23:       929.05    1.664383  (  0.059457   0.165526   1.278064)
  24:       988.71    1.740286  (  0.268993   1.212622  -0.444383)
  25:       996.14    2.826656  ( -0.551522  -0.777082   1.385144)
  26:      1012.95    2.339306  ( -0.101972   1.347280   0.716759)
  27:      1030.79    5.851226  (  0.500605   1.109511  -2.090360)
  28:      1036.29    1.904201  (  1.111055   0.086321  -0.813822)
  29:      1111.87   16.356313  ( -1.013520  -2.162390  -3.263918)
  30:      1163.96    5.873091  ( -2.096503  -1.121551   0.468926)
  31:      1181.60    4.030964  ( -0.880568  -0.613793  -1.696709)
  32:      1202.67    4.603875  (  0.169353  -2.082413   0.488621)
  33:      1287.68    1.769164  ( -0.878223   0.543404   0.838213)
  34:      1303.09    0.714518  ( -0.696628   0.110406  -0.465873)
  35:      1312.20    1.307904  (  0.226799  -1.097352  -0.228660)
  36:      1348.15    4.931590  ( -1.867339   0.045789   1.201057)
  37:      1363.09    1.087440  (  0.897209  -0.105952  -0.520798)
  38:      1376.27    0.287584  (  0.219166  -0.327792  -0.363460)
  39:      1391.96    6.218014  (  0.028261   0.633309  -2.411667)
  40:      1404.86   15.696254  ( -0.294555  -0.023487  -3.950815)
  41:      1414.71    8.129560  ( -2.390956  -1.538355   0.215295)
  42:      1417.27    9.085597  ( -1.921706   2.290110   0.384759)
  43:      1474.38    1.818068  ( -0.465789  -0.040406  -1.264704)
  44:      1481.30    1.614524  ( -1.134547  -0.392086  -0.416647)
  45:      1491.54    9.762425  (  2.716600   1.445881   0.540315)
  46:      1494.28    6.663490  (  2.050717  -1.391126  -0.723060)
  47:      1496.87    6.874696  ( -0.363206  -2.014011  -1.639066)
  48:      1501.05    7.721471  ( -0.297519   2.759487   0.134847)
  49:      1505.49   81.726062  ( -0.679570   2.809249  -8.565767)
  50:      1507.59   87.931952  ( -0.191545   4.634771  -8.149488)
  51:      1656.71   52.375663  (  6.941416  -1.683020  -1.166123)
  52:      1664.28   35.611951  (  1.577803   5.138520   2.591929)
  53:      3022.22    7.155657  (  2.459028   0.899320  -0.547778)
  54:      3029.33   10.981663  ( -0.239882  -1.989703   2.639167)
  55:      3039.01   42.789158  (  1.171588  -6.281156  -1.401293)
  56:      3044.60   22.020952  ( -2.257190   1.100669  -3.964161)
  57:      3055.77    9.592402  (  0.966641   2.909620   0.438312)
  58:      3073.49   16.230846  ( -3.605434   1.492921   1.001437)
  59:      3086.11    5.941526  ( -1.292829   0.481290  -2.009597)
  60:      3100.17    4.016711  ( -0.091667  -1.800831  -0.874824)
  61:      3117.38   32.071115  ( -0.924090   0.100786  -5.586324)
  62:      3126.72   24.146652  (  4.421141  -0.327066  -2.119715)
  63:      3139.10    8.157055  ( -0.901270   0.894049  -2.558407)
  64:      3142.76   13.401112  (  0.908677   3.545738  -0.056235)
  65:      3161.18    1.247850  (  1.116579   0.031791   0.009505)
  66:      3422.06   43.658083  ( -0.381736   1.779656  -6.351786)
  67:      3503.66   87.030427  ( -8.955793   2.086717   1.571565)
  68:      3510.00   93.669424  ( -2.620479  -8.459297  -3.904204)

The first frequency considered to be a vibration is 6
The total number of vibrations considered is 63


--------------------------
THERMOCHEMISTRY AT 298.15K
--------------------------

Temperature         ... 298.15 K
Pressure            ... 1.00 atm
Total Mass          ... 102.20 AMU

Throughout the following assumptions are being made:
  (1) The electronic state is orbitally nondegenerate
  (2) There are no thermally accessible electronically excited states
  (3) Hindered rotations indicated by low frequency modes) are not
      treated as such but are treated as vibrations and this may
      case some error
  (4) All equations used are the standard statistical mechanics
      equations for an ideal gas
  (5) All vibrations are strinctly harmonic


------------
INNER ENERGY
------------

The inner energy is: U= E(el) + E(ZPE) + E(vib) + E(rot) + E(trans)
    E(el)   - is the total energy from the electronic structure calculation
              = E(kin-el) + E(nuc-el) + E(el-el) + E(nuc-nuc)
    E(ZPE)  - the the zero temperature vibrational energy from the frequency calculation
    E(vib)  - the the finite temperature correction to E(ZPE) due to population
              of excietd vibrational states
    E(rot)  - is the rotational thermal energy
    E(trans)- is the translational thermal energy

Summary of contributions to the inner energy U:
Electronic energy                ...   -292.53633050 Eh
Zero point energy                ...      0.22186667 Eh     139.22 kcal/mol
Thermal vibrational correction   ...      0.00680870 Eh       4.27 kcal/mol
Thermal rotational correction    ...      0.00141627 Eh       0.89 kcal/mol
Thermal translational correction ...      0.00141627 Eh       0.89 kcal/mol
-----------------------------------------------------------------------
Total thermal energy                   -292.30482258 Eh


Summary of corrections to the electronic energy:
(perhaps to be used in another calculation)
Total thermal correction                  0.00964125 Eh       6.05 kcal/mol
Non-thermal (ZPE) correction              0.22186667 Eh     139.22 kcal/mol
-----------------------------------------------------------------------
Total correction                          0.23150792 Eh     145.27 kcal/mol


--------
ENTHALPY
--------

The enthalpy is H = U + kB*T
                kB is Boltzmann's constant
Total free energy                 ...   -292.30482258 Eh 
Thermal Enthalpy correction       ...      0.00094421 Eh       0.59 kcal/mol
-----------------------------------------------------------------------
Total Enthalpy                    ...   -292.30387837 Eh


-------
ENTROPY
-------

The entropy contributions are T*S = T*(S(el)+S(vib)+S(rot)+S(trans)
     S(el)   - electronic entropy
     S(vib)  - vibrational entropy
     S(rot)  - rotational entropy
     S(trans)- translational entropy
The entropies will be listed as mutliplied by the temperature to get
units of energy

Electronic entropy                ...      0.00000000 Eh      0.00 kcal/mol
Vibrational entropy               ...      0.01245094 Eh      7.81 kcal/mol
Rotational entropy                ...      0.01244174 Eh      7.81 kcal/mol
Translational entropy             ...      0.01890208 Eh     11.86 kcal/mol
-----------------------------------------------------------------------
Final entropy term                ...      0.04379476 Eh     27.48 kcal/mol


CAUTION: The rotational entropy is not quite correctly treated here
         because it includes a symmetry number that is not yet correctly
         implemented in ORCA!
For a nonlinear molecule the correct rotational entropy is:
    S(rot) = R*(ln(qrot/sn)+1.5)
    R    = 8.31441 J/mol/K = 1.987191683e-3 kcal/mol/K
    qrot = 353592.4766608
    sn is the rotational symmetry number. We have assumed 3 here
       if it is different for your molecule then you should correct
       the printed rotational entropy by manually evaluating the equation
       as given above

For convenience we print out the resulting values for sn=1 - 12:
 sn= 1  qrot/sn=  353592.4767 T*S(rot)=     8.46 kcal/mol T*S(tot)=    28.13 kcal/mol
 sn= 2  qrot/sn=  176796.2383 T*S(rot)=     8.05 kcal/mol T*S(tot)=    27.72 kcal/mol
 sn= 3  qrot/sn=  117864.1589 T*S(rot)=     7.81 kcal/mol T*S(tot)=    27.48 kcal/mol
 sn= 4  qrot/sn=   88398.1192 T*S(rot)=     7.64 kcal/mol T*S(tot)=    27.31 kcal/mol
 sn= 5  qrot/sn=   70718.4953 T*S(rot)=     7.50 kcal/mol T*S(tot)=    27.18 kcal/mol
 sn= 6  qrot/sn=   58932.0794 T*S(rot)=     7.40 kcal/mol T*S(tot)=    27.07 kcal/mol
 sn= 7  qrot/sn=   50513.2110 T*S(rot)=     7.31 kcal/mol T*S(tot)=    26.98 kcal/mol
 sn= 8  qrot/sn=   44199.0596 T*S(rot)=     7.23 kcal/mol T*S(tot)=    26.90 kcal/mol
 sn= 9  qrot/sn=   39288.0530 T*S(rot)=     7.16 kcal/mol T*S(tot)=    26.83 kcal/mol
 sn=10  qrot/sn=   35359.2477 T*S(rot)=     7.09 kcal/mol T*S(tot)=    26.77 kcal/mol
 sn=11  qrot/sn=   32144.7706 T*S(rot)=     7.04 kcal/mol T*S(tot)=    26.71 kcal/mol
 sn=12  qrot/sn=   29466.0397 T*S(rot)=     6.99 kcal/mol T*S(tot)=    26.66 kcal/mol


-------------------
GIBBS FREE ENTHALPY
-------------------

The Gibbs free enthalpy is G = H - T*S

Total enthalpy                    ...   -292.30387837 Eh 
Total entropy correction          ...     -0.04379476 Eh    -27.48 kcal/mol
-----------------------------------------------------------------------
Final Gibbs free enthalpy         ...   -292.34767314 Eh

For completeness - the Gibbs free enthalpy minus the electronic energy
G-E(el)                           ...      0.18865737 Eh    118.38 kcal/mol


Timings for individual modules:

Sum of individual times         ...     3838.659 sec (=  63.978 min)
GTO integral calculation        ...       12.999 sec (=   0.217 min)   0.3 %
SCF iterations                  ...      345.927 sec (=   5.765 min)   9.0 %
SCF Gradient evaluation         ...      214.581 sec (=   3.576 min)   5.6 %
Geometry relaxation             ...        0.496 sec (=   0.008 min)   0.0 %
Analytical frequency calculation...     3264.656 sec (=  54.411 min)  85.0 %
                             ****ORCA TERMINATED NORMALLY****
TOTAL RUN TIME: 0 days 1 hours 4 minutes 0 seconds 622 msec
