
                                 *****************
                                 * O   R   C   A *
                                 *****************

           --- An Ab Initio, DFT and Semiempirical electronic structure package ---

                  #######################################################
                  #                        -***-                        #
                  #  Department of molecular theory and spectroscopy    #
                  #              Directorship: Frank Neese              #
                  # Max Planck Institute for Chemical Energy Conversion #
                  #                  D-45470 Muelheim/Ruhr              #
                  #                       Germany                       #
                  #                                                     #
                  #                  All rights reserved                #
                  #                        -***-                        #
                  #######################################################


                         Program Version 3.0.3 - RELEASE   -


 With contributions from (in alphabetic order):
   Ute Becker             : Parallelization
   Dmytro Bykov           : SCF Hessian
   Dmitry Ganyushin       : Spin-Orbit,Spin-Spin,Magnetic field MRCI
   Andreas Hansen         : Spin unrestricted coupled pair/coupled cluster methods
   Dimitrios Liakos       : Extrapolation schemes; parallel MDCI
   Robert Izsak           : Overlap fitted RIJCOSX, COSX-SCS-MP3
   Christian Kollmar      : KDIIS, OOCD, Brueckner-CCSD(T), CCSD density
   Simone Kossmann        : Meta GGA functionals, TD-DFT gradient, OOMP2, MP2 Hessian
   Taras Petrenko         : DFT Hessian,TD-DFT gradient, ASA and ECA modules, normal mode analysis, Resonance Raman, ABS, FL, XAS/XES, NRVS
   Christoph Reimann      : Effective Core Potentials
   Michael Roemelt        : Restricted open shell CIS
   Christoph Riplinger    : Improved optimizer, TS searches, QM/MM, DLPNO-CCSD
   Barbara Sandhoefer     : DKH picture change effects
   Igor Schapiro          : Molecular dynamics
   Kantharuban Sivalingam : CASSCF convergence, NEVPT2
   Boris Wezisla          : Elementary symmetry handling
   Frank Wennmohs         : Technical directorship


 We gratefully acknowledge several colleagues who have allowed us to
 interface, adapt or use parts of their codes:
   Stefan Grimme, W. Hujo, H. Kruse, T. Risthaus : VdW corrections, initial TS optimization,
                                                   DFT functionals, gCP
   Ed Valeev                                     : LibInt (2-el integral package), F12 methods
   Garnet Chan, S. Sharma, R. Olivares           : DMRG
   Ulf Ekstrom                                   : XCFun DFT Library
   Mihaly Kallay                                 : mrcc  (arbitrary order and MRCC methods)
   Andreas Klamt, Michael Diedenhofen            : otool_cosmo (COSMO solvation model)
   Frank Weinhold                                : gennbo (NPA and NBO analysis)
   Christopher J. Cramer and Donald G. Truhlar   : smd solvation model


 Your calculation uses the libint2 library for the computation of 2-el integrals
 For citations please refer to: http://libint.valeyev.net

 This ORCA versions uses:
   CBLAS   interface :  Fast vector & matrix operations
   LAPACKE interface :  Fast linear algebra routines
   SCALAPACK package :  Parallel linear algebra routines


Your calculation utilizes the basis: Ahlrichs-TZV
Cite in your paper:
H - Kr: A. Schaefer, H. Horn and R. Ahlrichs, J. Chem. Phys. 97, 2571 (1992).

The def2-TZV basis will be loaded
Cite in your paper:
 	F. Weigend, R. Ahlrichs, Phys. Chem. Chem. Phys. 2005, 7, 3297.

================================================================================
                                        WARNINGS
                       Please study these warnings very carefully!
================================================================================
Now building the actual basis set
WARNING: Geometry optimizations can change the point-group symmetry!

WARNING: Geometry Optimization
  ===> : Switching off AutoStart
         For restart on a previous wavefunction, please use MOREAD


INFO   : the flag for use of LIBINT has been found!

================================================================================
                                       INPUT FILE
================================================================================
NAME = 2236_+.inp
|  1> ! NORI PBE0 def2-TZVP UseSym TightOPT Freq TightSCF Grid3 FinalGrid5 XYZFile
|  2> % pal
|  3>     nprocs 8
|  4> end
|  5> %method
|  6>     SymThresh 5.0e-2
|  7> end
|  8> % geom 
|  9>     MaxIter 10
| 10> end 
| 11> % maxcore 2000
| 12> % output
| 13>     printlevel mini
| 14>     print[ P_Basis ] 0
| 15>     print[ P_SCFInfo ] 1
| 16>     print[ P_SCFIterInfo ] 1
| 17>     print[ P_OrbEn ] 0
| 18>     print[ P_Cartesian ] 0
| 19> end
| 20> % elprop
| 21>     Dipole false
| 22> end
| 23> *xyz 1 1
| 24>  C        0.7530224698     0.4391181353     0.0391160280 
| 25>  C        2.2517051422     0.3207551050    -0.1747099004 
| 26>  C        2.8733235797    -0.7697905465     0.6896277782 
| 27>  C        4.3639509989    -0.8777283398     0.4556556969 
| 28>  N        4.9669130267    -1.9472130458     1.2859078986 
| 29>  C        6.4070497910    -1.9711824163     1.6093263863 
| 30>  C        5.4221014296    -1.6897099072     2.6662185340 
| 31>  H        0.3335942091     1.2264836383    -0.5879047584 
| 32>  H        0.5173244137     0.6819279904     1.0779487803 
| 33>  H        0.2403932433    -0.4925573662    -0.2123844920 
| 34>  H        2.7341734974     1.2785152133     0.0494539334 
| 35>  H        2.4594744331     0.1098423017    -1.2291683577 
| 36>  H        2.3943781844    -1.7298282516     0.4617504480 
| 37>  H        2.6776083843    -0.5588898008     1.7467454811 
| 38>  H        4.8842237447     0.0481186648     0.7119527861 
| 39>  H        4.5958419299    -1.1201209571    -0.5841673917 
| 40>  H        4.5422017689    -2.8582434581     1.1405975550 
| 41>  H        6.9656123916    -1.1531531155     1.1735193899 
| 42>  H        6.8708176982    -2.9478223256     1.5566868330 
| 43>  H        5.1716076392    -2.4595965786     3.3843682291 
| 44>  H        5.2714020243    -0.6678249398     2.9890491424 
| 45> *
| 46> 
| 47>                          ****END OF INPUT****
================================================================================

The point group is C1 - hence turning off symmetry
If this is a round-off problem, please increase the symmetry
        detection tolerance (%method SymThresh)


                       *****************************
                       * Geometry Optimization Run *
                       *****************************

Geometry optimization settings:
Update method            Update   .... BFGS
Choice of coordinates    CoordSys .... Redundant Internals
Initial Hessian          InHess   .... Almoef's Model

Convergence Tolerances:
Energy Change            TolE     ....  1.0000e-06 Eh
Max. Gradient            TolMAXG  ....  1.0000e-04 Eh/bohr
RMS Gradient             TolRMSG  ....  3.0000e-05 Eh/bohr
Max. Displacement        TolMAXD  ....  1.0000e-03 bohr
RMS Displacement         TolRMSD  ....  6.0000e-04 bohr

------------------------------------------------------------------------------
                        ORCA OPTIMIZATION COORDINATE SETUP
------------------------------------------------------------------------------

The optimization will be done in new redundant internal coordinates
Making redundant internal coordinates   ...  (new redundants) done
Evaluating the initial hessian          ...  (Almloef) done
Evaluating the coordinates              ...  done
Calculating the B-matrix                .... done
Calculating the G-matrix                .... done
Diagonalizing the G-matrix              .... done
Small eigenvalue found = 1.484e-02
The first mode is                       ....   66
The number of degrees of freedom        ....   57

    -----------------------------------------------------------------
                    Redundant Internal Coordinates


    -----------------------------------------------------------------
         Definition                    Initial Value    Approx d2E/dq
    -----------------------------------------------------------------
      1. B(C   1,C   0)                  1.5185         0.389724   
      2. B(C   2,C   1)                  1.5241         0.381807   
      3. B(C   3,C   2)                  1.5127         0.398038   
      4. B(N   4,C   3)                  1.4821         0.398937   
      5. B(C   5,N   4)                  1.4762         0.407707   
      6. B(C   6,C   5)                  1.4719         0.462526   
      7. B(C   6,N   4)                  1.4761         0.407913   
      8. B(H   7,C   0)                  1.0904         0.359543   
      9. B(H   8,C   0)                  1.0926         0.356732   
     10. B(H   9,C   0)                  1.0927         0.356506   
     11. B(H  10,C   1)                  1.0956         0.352773   
     12. B(H  11,C   1)                  1.0952         0.353244   
     13. B(H  12,C   2)                  1.0968         0.351205   
     14. B(H  13,C   2)                  1.0956         0.352802   
     15. B(H  14,C   3)                  1.0925         0.356803   
     16. B(H  15,C   3)                  1.0926         0.356686   
     17. B(H  16,N   4)                  1.0156         0.423876   
     18. B(H  17,C   5)                  1.0822         0.370609   
     19. B(H  18,C   5)                  1.0824         0.370241   
     20. B(H  19,C   6)                  1.0822         0.370533   
     21. B(H  20,C   6)                  1.0822         0.370554   
     22. A(C   1,C   0,H   9)          111.3547         0.326045   
     23. A(H   7,C   0,H   8)          107.6557         0.290340   
     24. A(C   1,C   0,H   7)          110.7901         0.326500   
     25. A(H   7,C   0,H   9)          107.6291         0.290311   
     26. A(H   8,C   0,H   9)          107.8857         0.289954   
     27. A(C   1,C   0,H   8)          111.3542         0.326079   
     28. A(C   2,C   1,H  10)          109.2613         0.324385   
     29. A(C   0,C   1,C   2)          112.2387         0.367362   
     30. A(C   0,C   1,H  10)          109.7354         0.325481   
     31. A(C   2,C   1,H  11)          109.3199         0.324456   
     32. A(C   0,C   1,H  11)          109.7438         0.325552   
     33. A(H  10,C   1,H  11)          106.3673         0.289030   
     34. A(H  12,C   2,H  13)          106.9155         0.288772   
     35. A(C   3,C   2,H  13)          109.8163         0.326618   
     36. A(C   1,C   2,H  13)          109.6706         0.324389   
     37. A(C   1,C   2,H  12)          109.2924         0.324148   
     38. A(C   1,C   2,C   3)          111.4228         0.368695   
     39. A(C   3,C   2,H  12)          109.6152         0.326374   
     40. A(N   4,C   3,H  15)          106.6601         0.325368   
     41. A(C   2,C   3,H  15)          111.8492         0.327207   
     42. A(N   4,C   3,H  14)          106.6403         0.325385   
     43. A(C   2,C   3,H  14)          111.8704         0.327225   
     44. A(C   2,C   3,N   4)          111.4522         0.369163   
     45. A(H  14,C   3,H  15)          108.0714         0.289986   
     46. A(C   5,N   4,H  16)          115.1346         0.333118   
     47. A(C   3,N   4,H  16)          113.3914         0.331920   
     48. A(C   5,N   4,C   6)           59.8086         0.369782   
     49. A(C   3,N   4,C   6)          121.5615         0.368403   
     50. A(C   6,N   4,H  16)          114.7868         0.333146   
     51. A(C   3,N   4,C   5)          122.0954         0.368371   
     52. A(N   4,C   5,C   6)           60.0910         0.380278   
     53. A(H  17,C   5,H  18)          116.1871         0.293439   
     54. A(C   6,C   5,H  18)          119.6153         0.337531   
     55. A(N   4,C   5,H  18)          114.9594         0.328548   
     56. A(C   6,C   5,H  17)          119.3418         0.337587   
     57. A(N   4,C   5,H  17)          113.7681         0.328602   
     58. A(H  19,C   6,H  20)          116.2031         0.293469   
     59. A(C   5,C   6,H  20)          119.2069         0.337579   
     60. A(N   4,C   6,H  20)          113.6245         0.328621   
     61. A(C   5,C   6,H  19)          119.6926         0.337576   
     62. A(N   4,C   6,H  19)          115.1543         0.328618   
     63. A(N   4,C   6,C   5)           60.1003         0.380311   
     64. D(H  11,C   1,C   0,H   7)    -58.3669         0.012076   
     65. D(C   2,C   1,C   0,H   8)     60.0765         0.012076   
     66. D(H  11,C   1,C   0,H   8)   -178.1537         0.012076   
     67. D(H  10,C   1,C   0,H   8)    -61.6127         0.012076   
     68. D(H  10,C   1,C   0,H   7)     58.1740         0.012076   
     69. D(H  10,C   1,C   0,H   9)    177.9276         0.012076   
     70. D(H  11,C   1,C   0,H   9)     61.3867         0.012076   
     71. D(C   2,C   1,C   0,H   7)    179.8633         0.012076   
     72. D(C   2,C   1,C   0,H   9)    -60.3831         0.012076   
     73. D(H  12,C   2,C   1,H  11)    -63.6701         0.011613   
     74. D(C   3,C   2,C   1,H  11)     57.6228         0.011613   
     75. D(H  12,C   2,C   1,H  10)   -179.6989         0.011613   
     76. D(C   3,C   2,C   1,C   0)    179.6342         0.011613   
     77. D(H  13,C   2,C   1,H  11)    179.4252         0.011613   
     78. D(H  13,C   2,C   1,H  10)     63.3964         0.011613   
     79. D(H  13,C   2,C   1,C   0)    -58.5634         0.011613   
     80. D(C   3,C   2,C   1,H  10)    -58.4060         0.011613   
     81. D(H  12,C   2,C   1,C   0)     58.3414         0.011613   
     82. D(H  15,C   3,C   2,H  12)     60.9774         0.012575   
     83. D(H  15,C   3,C   2,C   1)    -60.1273         0.012575   
     84. D(H  14,C   3,C   2,H  13)    -60.4407         0.012575   
     85. D(H  14,C   3,C   2,H  12)   -177.6182         0.012575   
     86. D(H  14,C   3,C   2,C   1)     61.2771         0.012575   
     87. D(N   4,C   3,C   2,H  13)     58.8516         0.012575   
     88. D(H  15,C   3,C   2,H  13)    178.1549         0.012575   
     89. D(N   4,C   3,C   2,H  12)    -58.3259         0.012575   
     90. D(N   4,C   3,C   2,C   1)   -179.4305         0.012575   
     91. D(C   6,N   4,C   3,C   2)    -86.7736         0.014546   
     92. D(C   5,N   4,C   3,H  15)     79.0275         0.014546   
     93. D(C   5,N   4,C   3,C   2)   -158.6300         0.014546   
     94. D(C   5,N   4,C   3,H  14)    -36.2744         0.014546   
     95. D(H  16,N   4,C   3,H  15)    -65.8144         0.014546   
     96. D(H  16,N   4,C   3,H  14)    178.8837         0.014546   
     97. D(H  16,N   4,C   3,C   2)     56.5281         0.014546   
     98. D(C   6,N   4,C   3,H  15)    150.8839         0.014546   
     99. D(C   6,N   4,C   3,H  14)     35.5820         0.014546   
    100. D(H  18,C   5,N   4,H  16)      5.9310         0.015186   
    101. D(H  18,C   5,N   4,C   3)   -138.3517         0.015186   
    102. D(H  17,C   5,N   4,H  16)    143.3949         0.015186   
    103. D(H  17,C   5,N   4,C   6)   -111.3689         0.015186   
    104. D(H  17,C   5,N   4,C   3)     -0.8878         0.015186   
    105. D(H  18,C   5,N   4,C   6)    111.1672         0.015186   
    106. D(C   6,C   5,N   4,H  16)   -105.2362         0.015186   
    107. D(C   6,C   5,N   4,C   3)    110.4811         0.015186   
    108. D(H  20,C   6,C   5,H  18)    154.5139         0.016900   
    109. D(H  20,C   6,C   5,N   4)   -102.0136         0.016900   
    110. D(H  19,C   6,C   5,H  18)      0.2102         0.016900   
    111. D(H  19,C   6,C   5,H  17)   -154.1932         0.016900   
    112. D(N   4,C   6,C   5,H  18)   -103.4725         0.016900   
    113. D(N   4,C   6,C   5,H  17)    102.1241         0.016900   
    114. D(H  20,C   6,N   4,H  16)   -142.9049         0.015201   
    115. D(H  20,C   6,N   4,C   5)    111.2761         0.015201   
    116. D(H  20,C   6,N   4,C   3)     -0.0722         0.015201   
    117. D(H  19,C   6,C   5,N   4)    103.6827         0.016900   
    118. D(H  19,C   6,N   4,H  16)     -5.3575         0.015201   
    119. D(H  19,C   6,N   4,C   5)   -111.1765         0.015201   
    120. D(H  19,C   6,N   4,C   3)    137.4752         0.015201   
    121. D(H  20,C   6,C   5,H  17)      0.1105         0.016900   
    122. D(C   5,C   6,N   4,H  16)    105.8190         0.015201   
    123. D(C   5,C   6,N   4,C   3)   -111.3483         0.015201   
    -----------------------------------------------------------------

Number of atoms                         .... 21
Number of degrees of freedom            .... 123

         *************************************************************
         *                GEOMETRY OPTIMIZATION CYCLE   1            *
         *************************************************************


           ************************************************************
           *        Program running with 8 parallel MPI-processes     *
           *              working on a common directory               *
           ************************************************************
           ************************************************************
           *              Shut down parallel processing               *
           ************************************************************


           ************************************************************
           *        Program running with 8 parallel MPI-processes     *
           *              working on a common directory               *
           ************************************************************
------------
SCF SETTINGS
------------
Hamiltonian:
 Density Functional     Method          .... DFT(GTOs)
 Exchange Functional    Exchange        .... PBE
   PBE kappa parameter  XKappa          ....  0.804000
 Correlation Functional Correlation     .... PBE
 LDA part of GGA corr.  LDAOpt          .... PW91-LDA
 Gradients option       PostSCFGGA      .... off
 Hybrid DFT is turned on
   Fraction HF Exchange ScalHFX         ....  0.250000
   Scaling of DF-GGA-X  ScalDFX         ....  0.750000
   Scaling of DF-GGA-C  ScalDFC         ....  1.000000
   Scaling of DF-LDA-C  ScalLDAC        ....  1.000000
   Perturbative correction              ....  0.000000
   NL short-range parameter             ....  6.900000


General Settings:
 Integral files         IntName         .... 2236_+
 Hartree-Fock type      HFTyp           .... RHF
 Total Charge           Charge          ....    1
 Multiplicity           Mult            ....    1
 Number of Electrons    NEL             ....   56
 Basis Dimension        Dim             ....  301
 Nuclear Repulsion      ENuc            ....    318.4178836470 Eh

Convergence Acceleration:
 DIIS                   CNVDIIS         .... on
   Start iteration      DIISMaxIt       ....    12
   Startup error        DIISStart       ....  0.200000
   # of expansion vecs  DIISMaxEq       ....     5
   Bias factor          DIISBfac        ....   1.050
   Max. coefficient     DIISMaxC        ....  10.000
 Newton-Raphson         CNVNR           .... off
 SOSCF                  CNVSOSCF        .... on
   Start iteration      SOSCFMaxIt      ....   150
   Startup grad/error   SOSCFStart      ....  0.003300
 Level Shifting         CNVShift        .... on
   Level shift para.    LevelShift      ....    0.2500
   Turn off err/grad.   ShiftErr        ....    0.0010
 Zerner damping         CNVZerner       .... off
 Static damping         CNVDamp         .... on
   Fraction old density DampFac         ....    0.7000
   Max. Damping (<1)    DampMax         ....    0.9800
   Min. Damping (>=0)   DampMin         ....    0.0000
   Turn off err/grad.   DampErr         ....    0.1000
 Fernandez-Rico         CNVRico         .... off

SCF Procedure:
 Maximum # iterations   MaxIter         ....   125
 SCF integral mode      SCFMode         .... Direct
   Integral package                     .... LIBINT
 Reset frequeny         DirectResetFreq ....    20
 Integral Threshold     Thresh          ....  2.500e-11 Eh
 Primitive CutOff       TCut            ....  2.500e-12 Eh

Convergence Tolerance:
 Convergence Check Mode ConvCheckMode   .... Total+1el-Energy
 Energy Change          TolE            ....  1.000e-08 Eh
 1-El. energy change                    ....  1.000e-05 Eh
 Orbital Gradient       TolG            ....  1.000e-05
 Orbital Rotation angle TolX            ....  1.000e-05
 DIIS Error             TolErr          ....  5.000e-07


Diagonalization of the overlap matrix:
Smallest eigenvalue                        ... 1.177e-04
Time for diagonalization                   ...    0.329 sec
Threshold for overlap eigenvalues          ... 1.000e-08
Number of eigenvalues below threshold      ... 0
Time for construction of square roots      ...    0.020 sec
Total time needed                          ...    0.349 sec

-------------------
DFT GRID GENERATION
-------------------

General Integration Accuracy     IntAcc      ...  4.340
Radial Grid Type                 RadialGrid  ... Gauss-Chebyshev
Angular Grid (max. acc.)         AngularGrid ... Lebedev-194
Angular grid pruning method      GridPruning ... 3 (G Style)
Weight generation scheme         WeightScheme... Becke
Basis function cutoff            BFCut       ...    1.0000e-11
Integration weight cutoff        WCut        ...    1.0000e-14
Grids for H and He will be reduced by one unit

# of grid points (after initial pruning)     ...  44398 (   0.0 sec)
# of grid points (after weights+screening)   ...  40505 (   0.2 sec)
nearest neighbour list constructed           ...    0.0 sec
Grid point re-assignment to atoms done       ...    0.0 sec
Grid point division into batches done        ...    0.1 sec
Reduced shell lists constructed in    0.2 sec

Total number of grid points                  ...    40505
Total number of batches                      ...      646
Average number of points per batch           ...       62
Average number of grid points per atom       ...     1929
Average number of shells per batch           ...    97.10 (73.01%)
Average number of basis functions per batch  ...   220.17 (73.15%)
Average number of large shells per batch     ...    77.98 (80.31%)
Average number of large basis fcns per batch ...   177.63 (80.68%)
Maximum spatial batch extension              ...   2.50,  2.41,  2.52 au
Average spatial batch extension              ...   0.15,  0.15,  0.15 au

Time for grid setup =    0.617 sec

Loading Hartree-Fock densities                     ... done
Calculating cut-offs                               ... done
Setting up the integral package                    ... done
Initializing the effective Hamiltonian             ... done
Starting the Coulomb interaction                   ... done (   0.1 sec)
Reading the grid                                   ... done
Mapping shells                                     ... done
Starting the XC term evaluation                    ... done (   0.4 sec)
  promolecular density results
     # of electrons  =     56.991801181
     EX              =    -41.423311936
     EC              =     -1.864202872
     EX+EC           =    -43.287514808
Transforming the Hamiltonian                       ... done (   0.0 sec)
Diagonalizing the Hamiltonian                      ... done (   0.3 sec)
Back transforming the eigenvectors                 ... done (   0.0 sec)
Now organizing SCF variables                       ... done
--------------
SCF ITERATIONS
--------------
ITER       Energy         Delta-E        Max-DP      RMS-DP      [F,P]     Damp
               ***  Starting incremental Fock matrix formation  ***
  0   -291.1326823489   0.000000000000 0.03341027  0.00072141  0.1737122 0.7000
  1   -291.2065545279  -0.073872179040 0.02042321  0.00054679  0.0912871 0.7000
                               ***Turning on DIIS***
  2   -291.2391100743  -0.032555546396 0.03188260  0.00099905  0.0347674 0.0000
  3   -291.2861089370  -0.046998862631 0.01484843  0.00035352  0.0511929 0.0000
  4   -291.2981204097  -0.012011472770 0.00303422  0.00009847  0.0072567 0.0000
                      *** Initiating the SOSCF procedure ***
                           *** Shutting down DIIS ***
                      *** Re-Reading the Fockian *** 
                      *** Removing any level shift *** 
ITER      Energy       Delta-E        Grad      Rot      Max-DP    RMS-DP
  5   -291.29851155  -0.0003911355  0.000487  0.000487  0.001671  0.000040
               *** Restarting incremental Fock matrix formation ***
  6   -291.29853869  -0.0000271408  0.000182  0.000365  0.001307  0.000029
  7   -291.29853827   0.0000004190  0.000298  0.000256  0.000457  0.000007
  8   -291.29854188  -0.0000036083  0.000037  0.000057  0.000067  0.000002
  9   -291.29854187   0.0000000060  0.000029  0.000024  0.000041  0.000001
                  ***Gradient check signals convergence***
              ***Rediagonalizing the Fockian in SOSCF/NRSCF***

               *****************************************************
               *                     SUCCESS                       *
               *           SCF CONVERGED AFTER  10 CYCLES          *
               *****************************************************

Setting up the final grid:

General Integration Accuracy     IntAcc      ...  5.010
Radial Grid Type                 RadialGrid  ... Gauss-Chebyshev
Angular Grid (max. acc.)         AngularGrid ... Lebedev-434
Angular grid pruning method      GridPruning ... 3 (G Style)
Weight generation scheme         WeightScheme... Becke
Basis function cutoff            BFCut       ...    1.0000e-11
Integration weight cutoff        WCut        ...    1.0000e-14
Grids for H and He will be reduced by one unit

# of grid points (after initial pruning)     ... 168466 (   0.0 sec)
# of grid points (after weights+screening)   ... 151715 (   1.1 sec)
nearest neighbour list constructed           ...    0.0 sec
Grid point re-assignment to atoms done       ...    0.1 sec
Grid point division into batches done        ...    1.1 sec
Reduced shell lists constructed in    1.4 sec

Total number of grid points                  ...   151715
Total number of batches                      ...     2381
Average number of points per batch           ...       63
Average number of grid points per atom       ...     7225
Average number of shells per batch           ...    97.04 (72.96%)
Average number of basis functions per batch  ...   221.25 (73.50%)
Average number of large shells per batch     ...    77.39 (79.76%)
Average number of large basis fcns per batch ...   177.15 (80.07%)
Maximum spatial batch extension              ...   2.18,  1.87,  2.39 au
Average spatial batch extension              ...   0.10,  0.10,  0.10 au

Final grid set up in    3.2 sec
Final integration                            ... done (   1.3 sec)
Change in XC energy                          ...     0.000399819
Integrated number of electrons               ...    55.999967811
Previous integrated no of electrons          ...    55.999461920
Total Energy       :         -291.29814212 Eh           -7926.62543 eV
  Last Energy change         ...   -6.5532e-08  Tolerance :   1.0000e-08
  Last MAX-Density change    ...    3.9647e-06  Tolerance :   1.0000e-07
             **** THE GBW FILE WAS UPDATED (2236_+.gbw) ****
             **** DENSITY FILE WAS UPDATED (2236_+.scfp.tmp) ****
             **** ENERGY FILE WAS UPDATED (2236_+.en.tmp) ****
Total SCF time: 0 days 0 hours 1 min 24 sec 
           ************************************************************
           *              Shut down parallel processing               *
           ************************************************************

-------------------------   --------------------
FINAL SINGLE POINT ENERGY      -291.298142116125
-------------------------   --------------------



           ************************************************************
           *        Program running with 8 parallel MPI-processes     *
           *              working on a common directory               *
           ************************************************************
------------------------------------------------------------------------------
                         ORCA SCF GRADIENT CALCULATION
------------------------------------------------------------------------------

Gradient of the Kohn-Sham DFT energy:
Kohn-Sham wavefunction type      ... RKS
Hartree-Fock exchange scaling    ...    0.250
Number of operators              ...    1
Number of atoms                  ...   21
Basis set dimensions             ...  301
Integral neglect threshold       ... 2.5e-11
Integral primitive cutoff        ... 2.5e-12

Nuclear repulsion gradient       ... done
One Electron Gradient            ... done
Pre-screening matrix             ... done
Starting the two electron gradient:
Two electron gradient done
Exchange-correlation gradient    ... done

------------------
CARTESIAN GRADIENT
------------------

   1   C   :   -0.000123589    0.000033543    0.000013109
   2   C   :    0.000255262   -0.000155563    0.000211864
   3   C   :   -0.000149953    0.000114629   -0.000225157
   4   C   :    0.000018489   -0.000200328    0.000150348
   5   N   :   -0.000142197   -0.000080380   -0.000005561
   6   C   :   -0.000066875    0.000139794   -0.000231684
   7   C   :    0.000117669    0.000042753   -0.000061942
   8   H   :    0.000015918   -0.000036752    0.000061413
   9   H   :    0.000033844    0.000105143    0.000037836
  10   H   :    0.000009752   -0.000028281   -0.000022866
  11   H   :   -0.000119105   -0.000019795   -0.000036505
  12   H   :   -0.000000283    0.000017534   -0.000044243
  13   H   :    0.000002626   -0.000015347   -0.000001955
  14   H   :    0.000026159    0.000058439    0.000013245
  15   H   :    0.000003707    0.000014789   -0.000094226
  16   H   :    0.000007482    0.000034945   -0.000011866
  17   H   :   -0.000014661   -0.000006702   -0.000022469
  18   H   :    0.000038738   -0.000005141    0.000152101
  19   H   :   -0.000004485    0.000019441    0.000073123
  20   H   :   -0.000046558   -0.000086101   -0.000030459
  21   H   :    0.000138061    0.000053380    0.000075896

Norm of the cartesian gradient     ...    0.000739683
RMS gradient                       ...    0.000093191
MAX gradient                       ...    0.000255262

-------
TIMINGS
-------

Total SCF gradient time            ...       37.148 sec

One electron gradient       ....       0.204 sec  (  0.5%)
Prescreening matrices       ....       0.475 sec  (  1.3%)
Two electron gradient       ....      31.267 sec  ( 84.2%)
XC gradient                 ....       4.108 sec  ( 11.1%)
           ************************************************************
           *              Shut down parallel processing               *
           ************************************************************
------------------------------------------------------------------------------
                         ORCA GEOMETRY RELAXATION STEP
------------------------------------------------------------------------------

Reading the OPT-File                    .... done
Getting information on internals        .... done
Copying old internal coords+grads       .... done
Making the new internal coordinates     .... (new redundants).... done
Validating the new internal coordinates .... (new redundants).... done
Calculating the B-matrix                .... done
Calculating the G,G- and P matrices     .... done
Transforming gradient to internals      .... done
Projecting the internal gradient        .... done
Number of atoms                         ....  21
Number of internal coordinates          .... 123
Current Energy                          ....  -291.298142116 Eh
Current gradient norm                   ....     0.000739683 Eh/bohr
Maximum allowed component of the step   ....  0.300
Current trust radius                    ....  0.300
Evaluating the initial hessian          ....  (Almloef) done
Projecting the Hessian                  .... done
Forming the augmented Hessian           .... done
Diagonalizing the augmented Hessian     .... done
Last element of RFO vector              ....  0.999994027
Lowest eigenvalues of augmented Hessian:
 -0.000001050  0.011612718  0.012075844  0.012574939  0.014545792
Length of the computed step             ....  0.003456234
The final length of the internal step   ....  0.003456234
Converting the step to cartesian space:
 Initial RMS(Int)=    0.0003116381
Transforming coordinates:
 Iter   0:  RMS(Cart)=    0.0008001506 RMS(Int)=    0.0003116393
 Iter   1:  RMS(Cart)=    0.0000003677 RMS(Int)=    0.0000001552
 Iter   2:  RMS(Cart)=    0.0000000002 RMS(Int)=    0.0000000001
done
Storing new coordinates                 .... done

                                .--------------------.
          ----------------------|Geometry convergence|---------------------
          Item                value                 Tolerance   Converged
          -----------------------------------------------------------------
          RMS gradient        0.00004561            0.00003000      NO
          MAX gradient        0.00024981            0.00010000      NO
          RMS step            0.00031164            0.00060000      YES
          MAX step            0.00098001            0.00100000      YES
          ....................................................
          Max(Bonds)      0.0003      Max(Angles)    0.03
          Max(Dihed)        0.06      Max(Improp)    0.00
          -----------------------------------------------------------------

The optimization has not yet converged - more geometry cycles are needed


    ---------------------------------------------------------------------------
                         Redundant Internal Coordinates
                            (Angstroem and degrees)

        Definition                    Value    dE/dq     Step     New-Value
    ----------------------------------------------------------------------------
     1. B(C   1,C   0)                1.5185 -0.000128  0.0002    1.5187   
     2. B(C   2,C   1)                1.5241 -0.000250  0.0003    1.5244   
     3. B(C   3,C   2)                1.5127 -0.000059  0.0001    1.5128   
     4. B(N   4,C   3)                1.4821 -0.000079  0.0001    1.4822   
     5. B(C   5,N   4)                1.4762 -0.000015  0.0000    1.4762   
     6. B(C   6,C   5)                1.4719  0.000054 -0.0001    1.4718   
     7. B(C   6,N   4)                1.4761 -0.000117  0.0002    1.4762   
     8. B(H   7,C   0)                1.0904 -0.000074  0.0001    1.0905   
     9. B(H   8,C   0)                1.0926 -0.000112  0.0002    1.0927   
    10. B(H   9,C   0)                1.0927  0.000003 -0.0000    1.0927   
    11. B(H  10,C   1)                1.0956  0.000123 -0.0002    1.0954   
    12. B(H  11,C   1)                1.0952  0.000017 -0.0000    1.0952   
    13. B(H  12,C   2)                1.0968  0.000000 -0.0000    1.0968   
    14. B(H  13,C   2)                1.0956 -0.000062  0.0001    1.0957   
    15. B(H  14,C   3)                1.0925  0.000008 -0.0000    1.0925   
    16. B(H  15,C   3)                1.0926  0.000035 -0.0001    1.0925   
    17. B(H  16,N   4)                1.0156 -0.000021  0.0000    1.0156   
    18. B(H  17,C   5)                1.0822 -0.000067  0.0001    1.0823   
    19. B(H  18,C   5)                1.0824  0.000066 -0.0001    1.0823   
    20. B(H  19,C   6)                1.0822  0.000012 -0.0000    1.0822   
    21. B(H  20,C   6)                1.0822 -0.000157  0.0002    1.0824   
    22. A(C   1,C   0,H   9)          111.35  0.000051   -0.01    111.35   
    23. A(H   7,C   0,H   8)          107.66  0.000012   -0.00    107.65   
    24. A(C   1,C   0,H   7)          110.79  0.000008   -0.00    110.79   
    25. A(H   7,C   0,H   9)          107.63 -0.000017   -0.00    107.63   
    26. A(H   8,C   0,H   9)          107.89 -0.000026    0.01    107.89   
    27. A(C   1,C   0,H   8)          111.35 -0.000029    0.01    111.36   
    28. A(C   2,C   1,H  10)          109.26  0.000002    0.00    109.26   
    29. A(C   0,C   1,C   2)          112.24 -0.000016    0.00    112.24   
    30. A(C   0,C   1,H  10)          109.74  0.000000    0.00    109.74   
    31. A(C   2,C   1,H  11)          109.32  0.000041   -0.01    109.31   
    32. A(C   0,C   1,H  11)          109.74 -0.000022    0.00    109.75   
    33. A(H  10,C   1,H  11)          106.37 -0.000004    0.00    106.37   
    34. A(H  12,C   2,H  13)          106.92 -0.000001    0.01    106.92   
    35. A(C   3,C   2,H  13)          109.82 -0.000022    0.00    109.82   
    36. A(C   1,C   2,H  13)          109.67 -0.000004   -0.00    109.67   
    37. A(C   1,C   2,H  12)          109.29 -0.000022    0.00    109.30   
    38. A(C   1,C   2,C   3)          111.42  0.000057   -0.01    111.41   
    39. A(C   3,C   2,H  12)          109.62 -0.000010    0.00    109.62   
    40. A(N   4,C   3,H  15)          106.66 -0.000009    0.01    106.67   
    41. A(C   2,C   3,H  15)          111.85 -0.000010    0.01    111.86   
    42. A(N   4,C   3,H  14)          106.64  0.000082   -0.03    106.61   
    43. A(C   2,C   3,H  14)          111.87 -0.000044    0.01    111.88   
    44. A(C   2,C   3,N   4)          111.45 -0.000011    0.00    111.45   
    45. A(H  14,C   3,H  15)          108.07 -0.000002    0.00    108.07   
    46. A(C   5,N   4,H  16)          115.13 -0.000009    0.00    115.14   
    47. A(C   3,N   4,H  16)          113.39 -0.000003    0.01    113.40   
    48. A(C   5,N   4,C   6)           59.81  0.000049   -0.01     59.80   
    49. A(C   3,N   4,C   6)          121.56  0.000001   -0.00    121.56   
    50. A(C   6,N   4,H  16)          114.79 -0.000019    0.00    114.79   
    51. A(C   3,N   4,C   5)          122.10  0.000000   -0.01    122.08   
    52. A(N   4,C   5,C   6)           60.09 -0.000056    0.01     60.10   
    53. A(H  17,C   5,H  18)          116.19 -0.000072    0.02    116.20   
    54. A(C   6,C   5,H  18)          119.62  0.000005    0.01    119.62   
    55. A(N   4,C   5,H  18)          114.96  0.000031   -0.01    114.95   
    56. A(C   6,C   5,H  17)          119.34  0.000060   -0.01    119.33   
    57. A(N   4,C   5,H  17)          113.77  0.000063   -0.02    113.74   
    58. A(H  19,C   6,H  20)          116.20 -0.000038    0.01    116.22   
    59. A(C   5,C   6,H  20)          119.21  0.000001   -0.00    119.20   
    60. A(N   4,C   6,H  20)          113.62 -0.000014    0.01    113.64   
    61. A(C   5,C   6,H  19)          119.69  0.000035   -0.01    119.68   
    62. A(N   4,C   6,H  19)          115.15  0.000034   -0.02    115.14   
    63. A(N   4,C   6,C   5)           60.10  0.000007    0.00     60.10   
    64. D(H  11,C   1,C   0,H   7)    -58.37  0.000006    0.01    -58.35   
    65. D(C   2,C   1,C   0,H   8)     60.08 -0.000021    0.02     60.10   
    66. D(H  11,C   1,C   0,H   8)   -178.15  0.000005    0.01   -178.14   
    67. D(H  10,C   1,C   0,H   8)    -61.61 -0.000013    0.02    -61.59   
    68. D(H  10,C   1,C   0,H   7)     58.17 -0.000012    0.02     58.19   
    69. D(H  10,C   1,C   0,H   9)    177.93  0.000005    0.01    177.94   
    70. D(H  11,C   1,C   0,H   9)     61.39  0.000023    0.00     61.39   
    71. D(C   2,C   1,C   0,H   7)    179.86 -0.000020    0.02    179.89   
    72. D(C   2,C   1,C   0,H   9)    -60.38 -0.000003    0.01    -60.37   
    73. D(H  12,C   2,C   1,H  11)    -63.67  0.000002   -0.00    -63.67   
    74. D(C   3,C   2,C   1,H  11)     57.62  0.000012   -0.01     57.62   
    75. D(H  12,C   2,C   1,H  10)   -179.70 -0.000017    0.00   -179.70   
    76. D(C   3,C   2,C   1,C   0)    179.63  0.000002   -0.01    179.63   
    77. D(H  13,C   2,C   1,H  11)    179.43  0.000018   -0.01    179.41   
    78. D(H  13,C   2,C   1,H  10)     63.40 -0.000000   -0.01     63.39   
    79. D(H  13,C   2,C   1,C   0)    -58.56  0.000008   -0.01    -58.58   
    80. D(C   3,C   2,C   1,H  10)    -58.41 -0.000007   -0.00    -58.41   
    81. D(H  12,C   2,C   1,C   0)     58.34 -0.000008   -0.00     58.34   
    82. D(H  15,C   3,C   2,H  12)     60.98  0.000017   -0.03     60.95   
    83. D(H  15,C   3,C   2,C   1)    -60.13  0.000014   -0.02    -60.15   
    84. D(H  14,C   3,C   2,H  13)    -60.44 -0.000043    0.00    -60.44   
    85. D(H  14,C   3,C   2,H  12)   -177.62 -0.000024   -0.01   -177.63   
    86. D(H  14,C   3,C   2,C   1)     61.28 -0.000026   -0.01     61.27   
    87. D(N   4,C   3,C   2,H  13)     58.85  0.000023   -0.03     58.82   
    88. D(H  15,C   3,C   2,H  13)    178.15 -0.000003   -0.01    178.14   
    89. D(N   4,C   3,C   2,H  12)    -58.33  0.000043   -0.04    -58.37   
    90. D(N   4,C   3,C   2,C   1)   -179.43  0.000041   -0.04   -179.47   
    91. D(C   6,N   4,C   3,C   2)    -86.77  0.000018    0.04    -86.74   
    92. D(C   5,N   4,C   3,H  15)     79.03 -0.000020    0.04     79.06   
    93. D(C   5,N   4,C   3,C   2)   -158.63 -0.000045    0.06   -158.57   
    94. D(C   5,N   4,C   3,H  14)    -36.27 -0.000052    0.05    -36.23   
    95. D(H  16,N   4,C   3,H  15)    -65.81  0.000004    0.04    -65.78   
    96. D(H  16,N   4,C   3,H  14)    178.88 -0.000028    0.04    178.93   
    97. D(H  16,N   4,C   3,C   2)     56.53 -0.000021    0.06     56.58   
    98. D(C   6,N   4,C   3,H  15)    150.88  0.000043    0.02    150.90   
    99. D(C   6,N   4,C   3,H  14)     35.58  0.000011    0.03     35.61   
   100. D(H  18,C   5,N   4,H  16)      5.93 -0.000021    0.01      5.95   
   101. D(H  18,C   5,N   4,C   3)   -138.35  0.000001    0.01   -138.34   
   102. D(H  17,C   5,N   4,H  16)    143.39 -0.000027    0.00    143.40   
   103. D(H  17,C   5,N   4,C   6)   -111.37 -0.000029    0.00   -111.37   
   104. D(H  17,C   5,N   4,C   3)     -0.89 -0.000005    0.00     -0.89   
   105. D(H  18,C   5,N   4,C   6)    111.17 -0.000023    0.01    111.18   
   106. D(C   6,C   5,N   4,H  16)   -105.24  0.000002    0.00   -105.23   
   107. D(C   6,C   5,N   4,C   3)    110.48  0.000024   -0.00    110.48   
   108. D(H  20,C   6,C   5,H  18)    154.51  0.000003   -0.01    154.50   
   109. D(H  20,C   6,C   5,N   4)   -102.01  0.000014   -0.02   -102.03   
   110. D(H  19,C   6,C   5,H  18)      0.21  0.000019   -0.01      0.20   
   111. D(H  19,C   6,C   5,H  17)   -154.19  0.000054   -0.03   -154.23   
   112. D(N   4,C   6,C   5,H  18)   -103.47 -0.000011    0.01   -103.47   
   113. D(N   4,C   6,C   5,H  17)    102.12  0.000024   -0.02    102.10   
   114. D(H  20,C   6,N   4,H  16)   -142.90  0.000022   -0.01   -142.91   
   115. D(H  20,C   6,N   4,C   5)    111.28  0.000009   -0.01    111.27   
   116. D(H  20,C   6,N   4,C   3)     -0.07 -0.000012    0.01     -0.06   
   117. D(H  19,C   6,C   5,N   4)    103.68  0.000030   -0.01    103.67   
   118. D(H  19,C   6,N   4,H  16)     -5.36 -0.000015    0.01     -5.35   
   119. D(H  19,C   6,N   4,C   5)   -111.18 -0.000028    0.01   -111.17   
   120. D(H  19,C   6,N   4,C   3)    137.48 -0.000049    0.03    137.50   
   121. D(H  20,C   6,C   5,H  17)      0.11  0.000038   -0.04      0.07   
   122. D(C   5,C   6,N   4,H  16)    105.82  0.000014    0.00    105.82   
   123. D(C   5,C   6,N   4,C   3)   -111.35 -0.000021    0.02   -111.33   
    ----------------------------------------------------------------------------

         *************************************************************
         *                GEOMETRY OPTIMIZATION CYCLE   2            *
         *************************************************************
---------------------------------
CARTESIAN COORDINATES (ANGSTROEM)
---------------------------------
  C      1.073703   -0.000154   -3.321833
  C      0.225093    0.594856   -2.211818
  C      0.537259   -0.021896   -0.853141
  C     -0.311435    0.590281    0.239360
  N      0.000272    0.000141    1.562828
  C     -0.951438    0.055905    2.689963
  C     -0.663659   -1.230650    2.035729
  H      0.830024    0.455806   -4.282029
  H      0.909555   -1.076462   -3.414924
  H      2.138678    0.162497   -3.139018
  H     -0.836524    0.449481   -2.439332
  H      0.384975    1.677252   -2.163492
  H      1.598958    0.128127   -0.622322
  H      0.369094   -1.103886   -0.891894
  H     -1.377606    0.425428    0.067190
  H     -0.144984    1.666335    0.329055
  H      0.979321    0.081739    1.820375
  H     -1.872410    0.574579    2.457397
  H     -0.507593    0.278062    3.651795
  H     -0.013426   -1.945761    2.522543
  H     -1.378282   -1.636409    1.331217

----------------------------
CARTESIAN COORDINATES (A.U.)
----------------------------
  NO LB      ZA    FRAG    MASS        X           Y           Z
   0 C     6.0000    0    12.011          2.029003998054510         -0.000291313340085         -6.277354842658903
   1 C     6.0000    0    12.011          0.425363573103055          1.124115400395297         -4.179729526969472
   2 C     6.0000    0    12.011          1.015272980863616         -0.041377407481335         -1.612202166541124
   3 C     6.0000    0    12.011         -0.588526614369959          1.115468510411905          0.452324929234373
   4 N     7.0000    0    14.007          0.000513384113109          0.000266750149712          2.953316036439576
   5 C     6.0000    0    12.011         -1.797956836009261          0.105645721866361          5.083292567517605
   6 C     6.0000    0    12.011         -1.254133327736412         -2.325591923170600          3.846969448251113
   7 H     1.0000    0     1.008          1.568518864932734          0.861349372081220         -8.091863008055892
   8 H     1.0000    0     1.008          1.718809876475976         -2.034217694590092         -6.453271188901378
   9 H     1.0000    0     1.008          4.041516524977664          0.307075047041176         -5.931884945308921
  10 H     1.0000    0     1.008         -1.580800569217373          0.849396781040650         -4.609669509434286
  11 H     1.0000    0     1.008          0.727497104929120          3.169547309503930         -4.088407287798427
  12 H     1.0000    0     1.008          3.021592967771983          0.242124123890952         -1.176018307549357
  13 H     1.0000    0     1.008          0.697485870891194         -2.086042115615883         -1.685435980901286
  14 H     1.0000    0     1.008         -2.603297854683494          0.803941504277279          0.126970397771603
  15 H     1.0000    0     1.008         -0.273980453164245          3.148917641013381          0.621824046479918
  16 H     1.0000    0     1.008          1.850647804518104          0.154463865227304          3.440009323025754
  17 H     1.0000    0     1.008         -3.538341936101856          1.085796041083567          4.643808081652480
  18 H     1.0000    0     1.008         -0.959211651375115          0.525460954393194          6.900891770223733
  19 H     1.0000    0     1.008         -0.025371776773753         -3.676954877494590          4.766916198024737
  20 H     1.0000    0     1.008         -2.604575017916886         -3.092364510905808          2.515635267281786

--------------------------------
INTERNAL COORDINATES (ANGSTROEM)
--------------------------------
 C      0   0   0   0.000000     0.000     0.000
 C      1   0   0   1.518654     0.000     0.000
 C      2   1   0   1.524413   112.241     0.000
 C      3   2   1   1.512812   111.411   179.626
 N      4   3   2   1.482225   111.452   180.529
 C      5   4   3   1.476243   122.081   201.426
 C      6   5   4   1.471755    60.100   110.481
 H      1   2   3   1.090530   110.787   179.887
 H      1   2   3   1.092725   111.361    60.102
 H      1   2   3   1.092726   111.346   299.632
 H      2   1   3   1.095411   109.739   238.306
 H      2   1   3   1.095207   109.749   121.759
 H      3   2   1   1.096808   109.296    58.337
 H      3   2   1   1.095666   109.669   301.422
 H      4   3   2   1.092492   111.877    61.270
 H      4   3   2   1.092541   111.862   299.849
 H      5   4   3   1.015640   113.400    56.584
 H      6   5   4   1.082265   113.743   359.115
 H      6   5   4   1.082346   114.954   221.661
 H      7   6   5   1.082208   119.680   103.668
 H      7   6   5   1.082434   119.204   257.968

---------------------------
INTERNAL COORDINATES (A.U.)
---------------------------
 C      0   0   0   0.000000     0.000     0.000
 C      1   0   0   2.869841     0.000     0.000
 C      2   1   0   2.880723   112.241     0.000
 C      3   2   1   2.858800   111.411   179.626
 N      4   3   2   2.801000   111.452   180.529
 C      5   4   3   2.789695   122.081   201.426
 C      6   5   4   2.781215    60.100   110.481
 H      1   2   3   2.060804   110.787   179.887
 H      1   2   3   2.064951   111.361    60.102
 H      1   2   3   2.064953   111.346   299.632
 H      2   1   3   2.070027   109.739   238.306
 H      2   1   3   2.069642   109.749   121.759
 H      3   2   1   2.072667   109.296    58.337
 H      3   2   1   2.070509   109.669   301.422
 H      4   3   2   2.064512   111.877    61.270
 H      4   3   2   2.064603   111.862   299.849
 H      5   4   3   1.919282   113.400    56.584
 H      6   5   4   2.045185   113.743   359.115
 H      6   5   4   2.045337   114.954   221.661
 H      7   6   5   2.045077   119.680   103.668
 H      7   6   5   2.045503   119.204   257.968



           ************************************************************
           *        Program running with 8 parallel MPI-processes     *
           *              working on a common directory               *
           ************************************************************
           ************************************************************
           *              Shut down parallel processing               *
           ************************************************************


           ************************************************************
           *        Program running with 8 parallel MPI-processes     *
           *              working on a common directory               *
           ************************************************************

Diagonalization of the overlap matrix:
Smallest eigenvalue                        ... 1.179e-04
Time for diagonalization                   ...    0.084 sec
Threshold for overlap eigenvalues          ... 1.000e-08
Number of eigenvalues below threshold      ... 0
Time for construction of square roots      ...    0.231 sec
Total time needed                          ...    0.316 sec

-------------------
DFT GRID GENERATION
-------------------

General Integration Accuracy     IntAcc      ...  4.340
Radial Grid Type                 RadialGrid  ... Gauss-Chebyshev
Angular Grid (max. acc.)         AngularGrid ... Lebedev-194
Angular grid pruning method      GridPruning ... 3 (G Style)
Weight generation scheme         WeightScheme... Becke
Basis function cutoff            BFCut       ...    1.0000e-11
Integration weight cutoff        WCut        ...    1.0000e-14
Grids for H and He will be reduced by one unit

# of grid points (after initial pruning)     ...  44398 (   0.0 sec)
# of grid points (after weights+screening)   ...  40505 (   0.2 sec)
nearest neighbour list constructed           ...    0.0 sec
Grid point re-assignment to atoms done       ...    0.0 sec
Grid point division into batches done        ...    0.1 sec
Reduced shell lists constructed in    0.2 sec

Total number of grid points                  ...    40505
Total number of batches                      ...      647
Average number of points per batch           ...       62
Average number of grid points per atom       ...     1929
Average number of shells per batch           ...    97.09 (73.00%)
Average number of basis functions per batch  ...   220.13 (73.13%)
Average number of large shells per batch     ...    77.89 (80.23%)
Average number of large basis fcns per batch ...   177.38 (80.58%)
Maximum spatial batch extension              ...   2.50,  2.45,  2.52 au
Average spatial batch extension              ...   0.15,  0.15,  0.15 au

Time for grid setup =    0.695 sec

--------------
SCF ITERATIONS
--------------
ITER       Energy         Delta-E        Max-DP      RMS-DP      [F,P]     Damp
               ***  Starting incremental Fock matrix formation  ***
                      *** Initiating the SOSCF procedure ***
                      *** Re-Reading the Fockian *** 
                      *** Removing any level shift *** 
ITER      Energy       Delta-E        Grad      Rot      Max-DP    RMS-DP
  0   -291.29854301 -291.2985430144  0.000057  0.000057  0.000089  0.000003
               *** Restarting incremental Fock matrix formation ***
  1   -291.29854352  -0.0000005075  0.000025  0.000052  0.000033  0.000001
  2   -291.29854357  -0.0000000445  0.000007  0.000016  0.000015  0.000000
  3   -291.29854357  -0.0000000008  0.000007  0.000007  0.000007  0.000000
                 **** Energy Check signals convergence ****
              ***Rediagonalizing the Fockian in SOSCF/NRSCF***

               *****************************************************
               *                     SUCCESS                       *
               *           SCF CONVERGED AFTER   4 CYCLES          *
               *****************************************************

Setting up the final grid:

General Integration Accuracy     IntAcc      ...  5.010
Radial Grid Type                 RadialGrid  ... Gauss-Chebyshev
Angular Grid (max. acc.)         AngularGrid ... Lebedev-434
Angular grid pruning method      GridPruning ... 3 (G Style)
Weight generation scheme         WeightScheme... Becke
Basis function cutoff            BFCut       ...    1.0000e-11
Integration weight cutoff        WCut        ...    1.0000e-14
Grids for H and He will be reduced by one unit

# of grid points (after initial pruning)     ... 168466 (   0.0 sec)
# of grid points (after weights+screening)   ... 151716 (   0.9 sec)
nearest neighbour list constructed           ...    0.0 sec
Grid point re-assignment to atoms done       ...    0.0 sec
Grid point division into batches done        ...    1.1 sec
Reduced shell lists constructed in    1.6 sec

Total number of grid points                  ...   151716
Total number of batches                      ...     2380
Average number of points per batch           ...       63
Average number of grid points per atom       ...     7225
Average number of shells per batch           ...    96.95 (72.89%)
Average number of basis functions per batch  ...   221.02 (73.43%)
Average number of large shells per batch     ...    77.34 (79.77%)
Average number of large basis fcns per batch ...   177.05 (80.11%)
Maximum spatial batch extension              ...   2.18,  1.88,  2.56 au
Average spatial batch extension              ...   0.10,  0.10,  0.10 au

Final grid set up in    2.7 sec
Final integration                            ... done (   1.1 sec)
Change in XC energy                          ...     0.000400709
Integrated number of electrons               ...    55.999967374
Previous integrated no of electrons          ...    55.999469764
Total Energy       :         -291.29814286 Eh           -7926.62545 eV
  Last Energy change         ...   -3.5000e-09  Tolerance :   1.0000e-08
  Last MAX-Density change    ...    2.2711e-06  Tolerance :   1.0000e-07
             **** THE GBW FILE WAS UPDATED (2236_+.gbw) ****
             **** DENSITY FILE WAS UPDATED (2236_+.scfp.tmp) ****
             **** ENERGY FILE WAS UPDATED (2236_+.en.tmp) ****
Total SCF time: 0 days 0 hours 0 min 38 sec 
           ************************************************************
           *              Shut down parallel processing               *
           ************************************************************

-------------------------   --------------------
FINAL SINGLE POINT ENERGY      -291.298142861242
-------------------------   --------------------



           ************************************************************
           *        Program running with 8 parallel MPI-processes     *
           *              working on a common directory               *
           ************************************************************
------------------------------------------------------------------------------
                         ORCA SCF GRADIENT CALCULATION
------------------------------------------------------------------------------

Gradient of the Kohn-Sham DFT energy:
Kohn-Sham wavefunction type      ... RKS
Hartree-Fock exchange scaling    ...    0.250
Number of operators              ...    1
Number of atoms                  ...   21
Basis set dimensions             ...  301
Integral neglect threshold       ... 2.5e-11
Integral primitive cutoff        ... 2.5e-12

Nuclear repulsion gradient       ... done
One Electron Gradient            ... done
Pre-screening matrix             ... done
Starting the two electron gradient:
Two electron gradient done
Exchange-correlation gradient    ... done

------------------
CARTESIAN GRADIENT
------------------

   1   C   :   -0.000047771    0.000049631    0.000006281
   2   C   :    0.000073208   -0.000062065    0.000103577
   3   C   :   -0.000068301    0.000074490   -0.000101188
   4   C   :    0.000013091   -0.000066197    0.000116003
   5   N   :   -0.000110347   -0.000047996    0.000000045
   6   C   :   -0.000006960    0.000045925   -0.000145333
   7   C   :    0.000153872    0.000056710    0.000058235
   8   H   :    0.000003861   -0.000008192   -0.000001338
   9   H   :    0.000015397   -0.000005326    0.000014339
  10   H   :    0.000007454   -0.000013740   -0.000014564
  11   H   :   -0.000015115    0.000004703   -0.000018039
  12   H   :   -0.000013081    0.000005472   -0.000027949
  13   H   :    0.000012953   -0.000011726    0.000008303
  14   H   :    0.000014909   -0.000006438    0.000006995
  15   H   :    0.000008389    0.000001084   -0.000046141
  16   H   :   -0.000009097    0.000010225   -0.000015733
  17   H   :    0.000011342    0.000008115   -0.000016929
  18   H   :   -0.000009433    0.000020835    0.000094748
  19   H   :   -0.000006847    0.000005305    0.000006362
  20   H   :   -0.000039721   -0.000057395   -0.000020745
  21   H   :    0.000012198   -0.000003417   -0.000006930

Norm of the cartesian gradient     ...    0.000390806
RMS gradient                       ...    0.000049237
MAX gradient                       ...    0.000153872

-------
TIMINGS
-------

Total SCF gradient time            ...       36.109 sec

One electron gradient       ....       0.202 sec  (  0.6%)
Prescreening matrices       ....       0.368 sec  (  1.0%)
Two electron gradient       ....      30.374 sec  ( 84.1%)
XC gradient                 ....       4.410 sec  ( 12.2%)
           ************************************************************
           *              Shut down parallel processing               *
           ************************************************************
------------------------------------------------------------------------------
                         ORCA GEOMETRY RELAXATION STEP
------------------------------------------------------------------------------

Reading the OPT-File                    .... done
Getting information on internals        .... done
Copying old internal coords+grads       .... done
Making the new internal coordinates     .... (new redundants).... done
Validating the new internal coordinates .... (new redundants).... done
Calculating the B-matrix                .... done
Calculating the G,G- and P matrices     .... done
Transforming gradient to internals      .... done
Projecting the internal gradient        .... done
Number of atoms                         ....  21
Number of internal coordinates          .... 123
Current Energy                          ....  -291.298142861 Eh
Current gradient norm                   ....     0.000390806 Eh/bohr
Maximum allowed component of the step   ....  0.300
Current trust radius                    ....  0.300
Updating the Hessian (BFGS)             .... done
Forming the augmented Hessian           .... done
Diagonalizing the augmented Hessian     .... done
Last element of RFO vector              ....  0.999988064
Lowest eigenvalues of augmented Hessian:
 -0.000000573  0.011058258  0.011669969  0.012266521  0.013411513
Length of the computed step             ....  0.004885983
The final length of the internal step   ....  0.004885983
Converting the step to cartesian space:
 Initial RMS(Int)=    0.0004405543
Transforming coordinates:
 Iter   0:  RMS(Cart)=    0.0011372898 RMS(Int)=    0.0004405612
 Iter   1:  RMS(Cart)=    0.0000007294 RMS(Int)=    0.0000003380
 Iter   2:  RMS(Cart)=    0.0000000008 RMS(Int)=    0.0000000004
done
Storing new coordinates                 .... done

                                .--------------------.
          ----------------------|Geometry convergence|---------------------
          Item                value                 Tolerance   Converged
          -----------------------------------------------------------------
          Energy change      -0.00000075            0.00000100      YES
          RMS gradient        0.00001812            0.00003000      YES
          MAX gradient        0.00007688            0.00010000      YES
          RMS step            0.00044055            0.00060000      YES
          MAX step            0.00147662            0.00100000      NO
          ....................................................
          Max(Bonds)      0.0003      Max(Angles)    0.03
          Max(Dihed)        0.08      Max(Improp)    0.00
          -----------------------------------------------------------------

       The energies and gradients are converged
       and the convergence on bond distances, angles, dihedrals and impropers
       is acceptable.
       Convergence will therefore be signaled now


                    ***********************HURRAY********************
                    ***        THE OPTIMIZATION HAS CONVERGED     ***
                    *************************************************


    ---------------------------------------------------------------------------
                         Redundant Internal Coordinates

                          --- Optimized Parameters ---  
                            (Angstroem and degrees)

        Definition                    OldVal   dE/dq     Step     FinalVal
    ----------------------------------------------------------------------------
     1. B(C   1,C   0)                1.5187 -0.000022  0.0001    1.5187   
     2. B(C   2,C   1)                1.5244 -0.000077  0.0003    1.5247   
     3. B(C   3,C   2)                1.5128  0.000001  0.0000    1.5128   
     4. B(N   4,C   3)                1.4822 -0.000045  0.0001    1.4824   
     5. B(C   5,N   4)                1.4762 -0.000023  0.0001    1.4763   
     6. B(C   6,C   5)                1.4718  0.000014 -0.0001    1.4717   
     7. B(C   6,N   4)                1.4762 -0.000044  0.0002    1.4764   
     8. B(H   7,C   0)                1.0905 -0.000004  0.0000    1.0906   
     9. B(H   8,C   0)                1.0927  0.000001  0.0000    1.0928   
    10. B(H   9,C   0)                1.0927  0.000005 -0.0000    1.0927   
    11. B(H  10,C   1)                1.0954  0.000015 -0.0001    1.0953   
    12. B(H  11,C   1)                1.0952  0.000004 -0.0000    1.0952   
    13. B(H  12,C   2)                1.0968  0.000013 -0.0000    1.0968   
    14. B(H  13,C   2)                1.0957  0.000004  0.0000    1.0957   
    15. B(H  14,C   3)                1.0925 -0.000002  0.0000    1.0925   
    16. B(H  15,C   3)                1.0925  0.000008 -0.0000    1.0925   
    17. B(H  16,N   4)                1.0156  0.000006 -0.0000    1.0156   
    18. B(H  17,C   5)                1.0823 -0.000001  0.0000    1.0823   
    19. B(H  18,C   5)                1.0823  0.000003 -0.0000    1.0823   
    20. B(H  19,C   6)                1.0822  0.000002 -0.0000    1.0822   
    21. B(H  20,C   6)                1.0824  0.000002  0.0000    1.0825   
    22. A(C   1,C   0,H   9)          111.35  0.000027   -0.01    111.34   
    23. A(H   7,C   0,H   8)          107.65  0.000002   -0.00    107.65   
    24. A(C   1,C   0,H   7)          110.79  0.000012   -0.01    110.78   
    25. A(H   7,C   0,H   9)          107.63 -0.000014    0.00    107.63   
    26. A(H   8,C   0,H   9)          107.89 -0.000018    0.01    107.91   
    27. A(C   1,C   0,H   8)          111.36 -0.000010    0.01    111.37   
    28. A(C   2,C   1,H  10)          109.26  0.000005   -0.00    109.26   
    29. A(C   0,C   1,C   2)          112.24  0.000001   -0.00    112.24   
    30. A(C   0,C   1,H  10)          109.74 -0.000008    0.01    109.75   
    31. A(C   2,C   1,H  11)          109.31  0.000021   -0.02    109.29   
    32. A(C   0,C   1,H  11)          109.75 -0.000012    0.01    109.75   
    33. A(H  10,C   1,H  11)          106.37 -0.000006    0.01    106.37   
    34. A(H  12,C   2,H  13)          106.92 -0.000003    0.01    106.94   
    35. A(C   3,C   2,H  13)          109.82 -0.000013    0.00    109.82   
    36. A(C   1,C   2,H  13)          109.67 -0.000004   -0.00    109.67   
    37. A(C   1,C   2,H  12)          109.30 -0.000009    0.00    109.30   
    38. A(C   1,C   2,C   3)          111.41  0.000039   -0.02    111.39   
    39. A(C   3,C   2,H  12)          109.62 -0.000011    0.00    109.62   
    40. A(N   4,C   3,H  15)          106.67  0.000005    0.00    106.67   
    41. A(C   2,C   3,H  15)          111.86 -0.000006    0.01    111.88   
    42. A(N   4,C   3,H  14)          106.61  0.000041   -0.03    106.58   
    43. A(C   2,C   3,H  14)          111.88 -0.000019    0.01    111.88   
    44. A(C   2,C   3,N   4)          111.45 -0.000015    0.00    111.45   
    45. A(H  14,C   3,H  15)          108.07 -0.000003    0.00    108.08   
    46. A(C   5,N   4,H  16)          115.14  0.000000    0.01    115.14   
    47. A(C   3,N   4,H  16)          113.40 -0.000015    0.02    113.42   
    48. A(C   5,N   4,C   6)           59.80  0.000020   -0.01     59.79   
    49. A(C   3,N   4,C   6)          121.56  0.000013   -0.01    121.55   
    50. A(C   6,N   4,H  16)          114.79 -0.000008    0.00    114.79   
    51. A(C   3,N   4,C   5)          122.08  0.000006   -0.02    122.06   
    52. A(N   4,C   5,C   6)           60.10 -0.000017    0.01     60.11   
    53. A(H  17,C   5,H  18)          116.20 -0.000041    0.02    116.23   
    54. A(C   6,C   5,H  18)          119.62 -0.000006    0.01    119.63   
    55. A(N   4,C   5,H  18)          114.95  0.000007   -0.00    114.95   
    56. A(C   6,C   5,H  17)          119.33  0.000041   -0.02    119.31   
    57. A(N   4,C   5,H  17)          113.74  0.000039   -0.03    113.71   
    58. A(H  19,C   6,H  20)          116.22 -0.000028    0.02    116.23   
    59. A(C   5,C   6,H  20)          119.20 -0.000003    0.00    119.21   
    60. A(N   4,C   6,H  20)          113.64 -0.000003    0.01    113.65   
    61. A(C   5,C   6,H  19)          119.68  0.000027   -0.02    119.66   
    62. A(N   4,C   6,H  19)          115.14  0.000027   -0.03    115.11   
    63. A(N   4,C   6,C   5)           60.10 -0.000003    0.00     60.10   
    64. D(H  11,C   1,C   0,H   7)    -58.35  0.000009    0.01    -58.34   
    65. D(C   2,C   1,C   0,H   8)     60.10 -0.000013    0.04     60.14   
    66. D(H  11,C   1,C   0,H   8)   -178.14  0.000005    0.02   -178.12   
    67. D(H  10,C   1,C   0,H   8)    -61.59 -0.000015    0.04    -61.56   
    68. D(H  10,C   1,C   0,H   7)     58.19 -0.000011    0.03     58.22   
    69. D(H  10,C   1,C   0,H   9)    177.94 -0.000003    0.02    177.96   
    70. D(H  11,C   1,C   0,H   9)     61.39  0.000017    0.01     61.40   
    71. D(C   2,C   1,C   0,H   7)    179.89 -0.000010    0.03    179.92   
    72. D(C   2,C   1,C   0,H   9)    -60.37 -0.000002    0.02    -60.34   
    73. D(H  12,C   2,C   1,H  11)    -63.67 -0.000002   -0.00    -63.68   
    74. D(C   3,C   2,C   1,H  11)     57.62  0.000003   -0.01     57.61   
    75. D(H  12,C   2,C   1,H  10)   -179.70 -0.000008   -0.00   -179.70   
    76. D(C   3,C   2,C   1,C   0)    179.63  0.000002   -0.01    179.61   
    77. D(H  13,C   2,C   1,H  11)    179.41  0.000009   -0.02    179.39   
    78. D(H  13,C   2,C   1,H  10)     63.39  0.000002   -0.02     63.37   
    79. D(H  13,C   2,C   1,C   0)    -58.58  0.000009   -0.02    -58.60   
    80. D(C   3,C   2,C   1,H  10)    -58.41 -0.000004   -0.01    -58.41   
    81. D(H  12,C   2,C   1,C   0)     58.34 -0.000002   -0.01     58.33   
    82. D(H  15,C   3,C   2,H  12)     60.95  0.000016   -0.04     60.91   
    83. D(H  15,C   3,C   2,C   1)    -60.15  0.000010   -0.04    -60.19   
    84. D(H  14,C   3,C   2,H  13)    -60.44 -0.000023   -0.00    -60.44   
    85. D(H  14,C   3,C   2,H  12)   -177.63 -0.000006   -0.02   -177.65   
    86. D(H  14,C   3,C   2,C   1)     61.27 -0.000012   -0.02     61.25   
    87. D(N   4,C   3,C   2,H  13)     58.82  0.000007   -0.04     58.78   
    88. D(H  15,C   3,C   2,H  13)    178.14 -0.000001   -0.03    178.11   
    89. D(N   4,C   3,C   2,H  12)    -58.37  0.000024   -0.06    -58.43   
    90. D(N   4,C   3,C   2,C   1)   -179.47  0.000018   -0.05   -179.52   
    91. D(C   6,N   4,C   3,C   2)    -86.74  0.000006    0.06    -86.68   
    92. D(C   5,N   4,C   3,H  15)     79.06 -0.000013    0.06     79.13   
    93. D(C   5,N   4,C   3,C   2)   -158.57 -0.000027    0.08   -158.49   
    94. D(C   5,N   4,C   3,H  14)    -36.23 -0.000032    0.07    -36.15   
    95. D(H  16,N   4,C   3,H  15)    -65.78  0.000001    0.06    -65.72   
    96. D(H  16,N   4,C   3,H  14)    178.93 -0.000017    0.07    179.00   
    97. D(H  16,N   4,C   3,C   2)     56.58 -0.000012    0.08     56.66   
    98. D(C   6,N   4,C   3,H  15)    150.90  0.000020    0.04    150.94   
    99. D(C   6,N   4,C   3,H  14)     35.61  0.000002    0.05     35.66   
   100. D(H  18,C   5,N   4,H  16)      5.95 -0.000012    0.02      5.96   
   101. D(H  18,C   5,N   4,C   3)   -138.34  0.000007    0.01   -138.33   
   102. D(H  17,C   5,N   4,H  16)    143.40 -0.000025    0.01    143.41   
   103. D(H  17,C   5,N   4,C   6)   -111.37 -0.000028    0.01   -111.36   
   104. D(H  17,C   5,N   4,C   3)     -0.89 -0.000005    0.00     -0.88   
   105. D(H  18,C   5,N   4,C   6)    111.18 -0.000015    0.01    111.19   
   106. D(C   6,C   5,N   4,H  16)   -105.23  0.000003    0.01   -105.23   
   107. D(C   6,C   5,N   4,C   3)    110.48  0.000022   -0.01    110.47   
   108. D(H  20,C   6,C   5,H  18)    154.50 -0.000000   -0.01    154.49   
   109. D(H  20,C   6,C   5,N   4)   -102.03  0.000004   -0.02   -102.05   
   110. D(H  19,C   6,C   5,H  18)      0.20  0.000017   -0.02      0.18   
   111. D(H  19,C   6,C   5,H  17)   -154.23  0.000041   -0.05   -154.28   
   112. D(N   4,C   6,C   5,H  18)   -103.47 -0.000004    0.00   -103.46   
   113. D(N   4,C   6,C   5,H  17)    102.10  0.000021   -0.03    102.07   
   114. D(H  20,C   6,N   4,H  16)   -142.91  0.000008    0.00   -142.91   
   115. D(H  20,C   6,N   4,C   5)    111.27 -0.000003   -0.00    111.26   
   116. D(H  20,C   6,N   4,C   3)     -0.06 -0.000014    0.02     -0.04   
   117. D(H  19,C   6,C   5,N   4)    103.67  0.000020   -0.02    103.64   
   118. D(H  19,C   6,N   4,H  16)     -5.35 -0.000009    0.01     -5.34   
   119. D(H  19,C   6,N   4,C   5)   -111.17 -0.000019    0.01   -111.16   
   120. D(H  19,C   6,N   4,C   3)    137.50 -0.000030    0.03    137.54   
   121. D(H  20,C   6,C   5,H  17)      0.07  0.000025   -0.04      0.03   
   122. D(C   5,C   6,N   4,H  16)    105.82  0.000010    0.00    105.82   
   123. D(C   5,C   6,N   4,C   3)   -111.33 -0.000011    0.02   -111.30   
    ----------------------------------------------------------------------------
                 *******************************************************
                 *** FINAL ENERGY EVALUATION AT THE STATIONARY POINT ***
                 ***               (AFTER    2 CYCLES)               ***
                 *******************************************************


           ************************************************************
           *        Program running with 8 parallel MPI-processes     *
           *              working on a common directory               *
           ************************************************************
           ************************************************************
           *              Shut down parallel processing               *
           ************************************************************


           ************************************************************
           *        Program running with 8 parallel MPI-processes     *
           *              working on a common directory               *
           ************************************************************
------------
SCF SETTINGS
------------
Hamiltonian:
 Density Functional     Method          .... DFT(GTOs)
 Exchange Functional    Exchange        .... PBE
   PBE kappa parameter  XKappa          ....  0.804000
 Correlation Functional Correlation     .... PBE
 LDA part of GGA corr.  LDAOpt          .... PW91-LDA
 Gradients option       PostSCFGGA      .... off
 Hybrid DFT is turned on
   Fraction HF Exchange ScalHFX         ....  0.250000
   Scaling of DF-GGA-X  ScalDFX         ....  0.750000
   Scaling of DF-GGA-C  ScalDFC         ....  1.000000
   Scaling of DF-LDA-C  ScalLDAC        ....  1.000000
   Perturbative correction              ....  0.000000
   NL short-range parameter             ....  6.900000


General Settings:
 Integral files         IntName         .... 2236_+
 Hartree-Fock type      HFTyp           .... RHF
 Total Charge           Charge          ....    1
 Multiplicity           Mult            ....    1
 Number of Electrons    NEL             ....   56
 Basis Dimension        Dim             ....  301
 Nuclear Repulsion      ENuc            ....    318.3939333856 Eh

Convergence Acceleration:
 DIIS                   CNVDIIS         .... on
   Start iteration      DIISMaxIt       ....    12
   Startup error        DIISStart       ....  0.200000
   # of expansion vecs  DIISMaxEq       ....     5
   Bias factor          DIISBfac        ....   1.050
   Max. coefficient     DIISMaxC        ....  10.000
 Newton-Raphson         CNVNR           .... off
 SOSCF                  CNVSOSCF        .... on
   Start iteration      SOSCFMaxIt      ....   150
   Startup grad/error   SOSCFStart      ....  0.003300
 Level Shifting         CNVShift        .... on
   Level shift para.    LevelShift      ....    0.2500
   Turn off err/grad.   ShiftErr        ....    0.0010
 Zerner damping         CNVZerner       .... off
 Static damping         CNVDamp         .... on
   Fraction old density DampFac         ....    0.7000
   Max. Damping (<1)    DampMax         ....    0.9800
   Min. Damping (>=0)   DampMin         ....    0.0000
   Turn off err/grad.   DampErr         ....    0.1000
 Fernandez-Rico         CNVRico         .... off

SCF Procedure:
 Maximum # iterations   MaxIter         ....   125
 SCF integral mode      SCFMode         .... Direct
   Integral package                     .... LIBINT
 Reset frequeny         DirectResetFreq ....    20
 Integral Threshold     Thresh          ....  2.500e-11 Eh
 Primitive CutOff       TCut            ....  2.500e-12 Eh

Convergence Tolerance:
 Convergence Check Mode ConvCheckMode   .... Total+1el-Energy
 Energy Change          TolE            ....  1.000e-08 Eh
 1-El. energy change                    ....  1.000e-05 Eh
 Orbital Gradient       TolG            ....  1.000e-05
 Orbital Rotation angle TolX            ....  1.000e-05
 DIIS Error             TolErr          ....  5.000e-07


Diagonalization of the overlap matrix:
Smallest eigenvalue                        ... 1.179e-04
Time for diagonalization                   ...    0.068 sec
Threshold for overlap eigenvalues          ... 1.000e-08
Number of eigenvalues below threshold      ... 0
Time for construction of square roots      ...    0.021 sec
Total time needed                          ...    0.090 sec

-------------------
DFT GRID GENERATION
-------------------

General Integration Accuracy     IntAcc      ...  4.340
Radial Grid Type                 RadialGrid  ... Gauss-Chebyshev
Angular Grid (max. acc.)         AngularGrid ... Lebedev-194
Angular grid pruning method      GridPruning ... 3 (G Style)
Weight generation scheme         WeightScheme... Becke
Basis function cutoff            BFCut       ...    1.0000e-11
Integration weight cutoff        WCut        ...    1.0000e-14
Grids for H and He will be reduced by one unit

# of grid points (after initial pruning)     ...  44398 (   0.0 sec)
# of grid points (after weights+screening)   ...  40506 (   0.2 sec)
nearest neighbour list constructed           ...    0.0 sec
Grid point re-assignment to atoms done       ...    0.0 sec
Grid point division into batches done        ...    0.1 sec
Reduced shell lists constructed in    0.2 sec

Total number of grid points                  ...    40506
Total number of batches                      ...      646
Average number of points per batch           ...       62
Average number of grid points per atom       ...     1929
Average number of shells per batch           ...    97.07 (72.99%)
Average number of basis functions per batch  ...   220.05 (73.11%)
Average number of large shells per batch     ...    77.93 (80.28%)
Average number of large basis fcns per batch ...   177.46 (80.65%)
Maximum spatial batch extension              ...   2.53,  2.45,  2.52 au
Average spatial batch extension              ...   0.15,  0.15,  0.15 au

Time for grid setup =    0.777 sec

--------------
SCF ITERATIONS
--------------
ITER       Energy         Delta-E        Max-DP      RMS-DP      [F,P]     Damp
               ***  Starting incremental Fock matrix formation  ***
                      *** Initiating the SOSCF procedure ***
                      *** Re-Reading the Fockian *** 
                      *** Removing any level shift *** 
ITER      Energy       Delta-E        Grad      Rot      Max-DP    RMS-DP
  0   -291.29854395 -291.2985439502  0.000082  0.000082  0.000128  0.000004
               *** Restarting incremental Fock matrix formation ***
  1   -291.29854497  -0.0000010166  0.000038  0.000077  0.000047  0.000002
  2   -291.29854506  -0.0000000930  0.000005  0.000014  0.000019  0.000000
  3   -291.29854506   0.0000000003  0.000008  0.000007  0.000012  0.000000
                  ***Gradient check signals convergence***
              ***Rediagonalizing the Fockian in SOSCF/NRSCF***

               *****************************************************
               *                     SUCCESS                       *
               *           SCF CONVERGED AFTER   4 CYCLES          *
               *****************************************************

Setting up the final grid:

General Integration Accuracy     IntAcc      ...  5.010
Radial Grid Type                 RadialGrid  ... Gauss-Chebyshev
Angular Grid (max. acc.)         AngularGrid ... Lebedev-434
Angular grid pruning method      GridPruning ... 3 (G Style)
Weight generation scheme         WeightScheme... Becke
Basis function cutoff            BFCut       ...    1.0000e-11
[...]
     39       0.093659   0.101829   0.038406  -0.009023  -0.091099  -0.011220
     40      -0.012030   0.539603   0.206414  -0.046555  -0.593174  -0.070891
     41      -0.014551   0.026863   0.010246  -0.000307  -0.025224  -0.004538
     42      -0.001335   0.063722   0.069362  -0.022722   0.044074   0.681211
     43      -0.214341   0.011883   0.012690  -0.004217   0.005499   0.121354
     44       0.002380   0.010660   0.014337  -0.005040   0.008460   0.114226
     45       0.243538  -0.008129  -0.011340   0.003652   0.018413  -0.122803
     46      -0.051956  -0.040775  -0.057247   0.017585   0.113106  -0.682697
     47       0.169409  -0.004737  -0.002975   0.000567   0.007695  -0.056961
     48      -0.037650  -0.001763  -0.001587   0.000827  -0.002300  -0.009623
     49      -0.125814  -0.000572  -0.000388   0.000142  -0.000103  -0.001304
     50       0.225582  -0.004626  -0.003046   0.000883  -0.002328   0.000049
     51      -0.025419  -0.001306  -0.000970   0.000348  -0.001658  -0.003378
     52      -0.130311   0.000285   0.000457  -0.000155   0.000627   0.003090
     53      -0.402138   0.000219  -0.000158   0.000041  -0.000291  -0.003341
     54       0.331629   0.000290   0.000155  -0.000060   0.000317   0.001165
     55      -0.231061   0.000435   0.000131  -0.000045  -0.000212  -0.000403
     56      -0.031607  -0.001061   0.000024   0.000208   0.000501  -0.002211
     57       0.236404   0.001138   0.000576  -0.000136  -0.000791   0.000610
     58       0.279923  -0.000933  -0.000483   0.000067   0.001068  -0.000285
     59       0.229760   0.000312   0.000102   0.000063  -0.000511   0.000513
     60      -0.145556  -0.001139  -0.000592   0.000126   0.000802  -0.001709
     61       0.393176  -0.000594  -0.000410   0.000106   0.000703   0.000402
     62      -0.154629  -0.001345  -0.000841   0.000169   0.001575  -0.003077
                 54         55         56         57         58         59    
      0       0.017017  -0.061387  -0.004886  -0.037666  -0.000050  -0.000071
      1       0.017151  -0.062194  -0.004856   0.051254   0.000037   0.000049
      2       0.003348  -0.013265  -0.001140  -0.066266  -0.000071  -0.000104
      3      -0.044223  -0.018393  -0.005627  -0.003742  -0.000001  -0.000023
      4      -0.046793  -0.018857  -0.005792   0.003909  -0.000045   0.000025
      5      -0.010023  -0.004149  -0.001298  -0.001108  -0.000010  -0.000029
      6      -0.038325  -0.003519  -0.014085  -0.000253   0.000050   0.000123
      7      -0.046057  -0.003979  -0.015138   0.000251   0.000339   0.000293
      8      -0.008486  -0.000785  -0.003032   0.000490  -0.000040  -0.000027
      9       0.014101   0.007668  -0.064375  -0.000070  -0.000089   0.001495
     10       0.010388   0.007715  -0.065363   0.000190  -0.000438   0.001295
     11       0.002922   0.001677  -0.014065   0.000028  -0.000065   0.000710
     12      -0.000221  -0.000142   0.001102   0.000003  -0.000252  -0.001525
     13       0.000164   0.000054  -0.000133  -0.000006  -0.000625  -0.001422
     14      -0.000193  -0.000071   0.000367   0.000002   0.000266   0.002328
     15      -0.000177  -0.000118   0.000889  -0.000042  -0.014049   0.023481
     16       0.000125   0.000101  -0.000907   0.000036   0.021387  -0.036494
     17       0.000046   0.000042  -0.000391   0.000045   0.021843  -0.036329
     18      -0.000117  -0.000099   0.000593  -0.000024   0.003896   0.002851
     19       0.000025  -0.000141   0.001167  -0.000118   0.051319   0.038623
     20      -0.000042  -0.000035   0.000115  -0.000027   0.010187   0.008185
     21       0.007419  -0.015622  -0.000722   0.199983   0.000207   0.000295
     22       0.003103  -0.010874  -0.001116  -0.372759  -0.000395  -0.000601
     23       0.007195  -0.009665   0.000382   0.779873   0.000739   0.001267
     24      -0.027156   0.095032   0.007132  -0.058984  -0.000055  -0.000055
     25      -0.181350   0.661134   0.053316  -0.303193  -0.000107  -0.000157
     26      -0.010983   0.050672   0.004956  -0.037719  -0.000035  -0.000074
     27      -0.183968   0.653454   0.053244   0.311594   0.000436   0.000614
     28      -0.026471   0.092420   0.007240   0.062016   0.000087   0.000121
     29      -0.035940   0.117494   0.008633   0.045031   0.000063   0.000073
     30       0.454819   0.187844   0.058787   0.046530   0.000166   0.000357
     31       0.059914   0.024914   0.007239   0.006054  -0.000018   0.000045
     32       0.101284   0.037847   0.014958   0.009111   0.000066   0.000090
     33       0.072744   0.027812   0.008981  -0.006453   0.000084  -0.000035
     34       0.498128   0.196111   0.062714  -0.046666   0.000183  -0.000466
     35       0.017468   0.010756   0.000236  -0.002763   0.000104   0.000104
     36       0.381389   0.036005   0.141159   0.004551  -0.000336  -0.001083
     37       0.049904   0.004206   0.019087   0.000838  -0.000029  -0.000073
     38       0.082996   0.011379   0.026666   0.002424  -0.000111   0.000037
     39       0.076783   0.006812   0.023644  -0.001375  -0.000583  -0.000614
     40       0.499906   0.043950   0.158984  -0.006041  -0.003412  -0.003344
     41       0.017389  -0.002045   0.009558   0.001061  -0.000476  -0.000327
     42      -0.154340  -0.077323   0.660018   0.001836   0.000893  -0.018638
     43      -0.024748  -0.012144   0.100258   0.000235   0.000149  -0.001837
     44      -0.029481  -0.013797   0.103871  -0.000220  -0.000445  -0.004679
     45      -0.016468  -0.012689   0.103141  -0.000299   0.000173  -0.002364
     46      -0.102287  -0.078680   0.677359  -0.002947   0.001617  -0.013656
     47      -0.004228  -0.005343   0.058697  -0.000741   0.001058  -0.002356
     48       0.005333   0.002540  -0.015595   0.000118  -0.000772  -0.005704
     49       0.000393   0.000499  -0.005221   0.000096  -0.000820  -0.001734
     50       0.002980   0.000367   0.002877   0.000211   0.000170   0.000972
     51       0.002927   0.001799  -0.014302   0.000549   0.333696  -0.499113
     52      -0.001540  -0.000979   0.007696  -0.000292  -0.185539   0.273425
     53       0.000819   0.000544  -0.004710   0.000135   0.089233  -0.135822
     54      -0.000666  -0.000571   0.005414  -0.000217  -0.165942   0.248876
     55       0.000092  -0.000174   0.002102  -0.000088  -0.078878   0.112079
     56      -0.000913  -0.001200   0.011570  -0.000431  -0.350650   0.519304
     57       0.000398  -0.000386   0.003814  -0.000699   0.351749   0.234740
     58      -0.000648   0.000202  -0.001821   0.000735  -0.374943  -0.246962
     59       0.000133  -0.000316   0.002600  -0.000491   0.264537   0.178662
     60       0.000168   0.001033  -0.007528   0.000870  -0.394165  -0.268007
     61      -0.000247   0.000402  -0.002982   0.000505  -0.214277  -0.142260
     62      -0.000246   0.001075  -0.009330   0.000907  -0.387389  -0.260796
                  60         61         62    
      0       0.000003   0.000023  -0.000050
      1      -0.000010  -0.000005   0.000012
      2      -0.000002   0.000012  -0.000007
      3      -0.000021  -0.000006  -0.000034
      4       0.000005   0.000039  -0.000063
      5       0.000009   0.000013  -0.000030
      6       0.000141   0.000087  -0.000567
      7       0.000038  -0.000023  -0.000080
      8       0.000062   0.000114  -0.000051
      9      -0.000104  -0.000660   0.001404
     10       0.000538  -0.000184   0.000490
     11       0.000192  -0.000203   0.000126
     12      -0.000131   0.002421   0.070891
     13       0.000267  -0.000323   0.005944
     14       0.000047   0.001689   0.019029
     15      -0.052707  -0.054936   0.000135
     16       0.011608   0.011782   0.000973
     17      -0.045855  -0.048212   0.001236
     18       0.055713  -0.051743   0.000817
     19      -0.013295   0.012534  -0.001401
     20       0.048548  -0.045006   0.000092
     21      -0.000006  -0.000042   0.000088
     22      -0.000020   0.000061  -0.000027
     23       0.000057  -0.000075  -0.000110
     24       0.000012   0.000020  -0.000007
     25       0.000085  -0.000000  -0.000039
     26       0.000003   0.000006   0.000012
     27       0.000004  -0.000226   0.000477
     28       0.000007  -0.000045   0.000048
     29       0.000007  -0.000026   0.000018
     30       0.000039  -0.000112   0.000921
     31      -0.000007   0.000014   0.000117
     32      -0.000015  -0.000054   0.000055
     33       0.000011  -0.000039  -0.000022
     34      -0.000036  -0.000142   0.000294
     35       0.000045  -0.000087  -0.000026
     36      -0.001066  -0.000303   0.002885
     37      -0.000319  -0.000068   0.001073
     38      -0.000409  -0.000433   0.001950
     39       0.000114  -0.000097   0.000352
     40      -0.000852   0.000235   0.000723
     41      -0.000324   0.000236   0.000167
     42       0.000461   0.007006  -0.017285
     43       0.000313   0.000081  -0.001893
     44       0.000082   0.002998  -0.006671
     45      -0.000907   0.000627  -0.001117
     46      -0.001498   0.000391  -0.004030
     47      -0.000738   0.001050   0.000253
     48       0.002581  -0.017442  -0.958968
     49      -0.006840   0.001634  -0.078457
     50      -0.002923  -0.011195  -0.260544
     51       0.414222   0.432702  -0.009910
     52      -0.229171  -0.248301   0.001417
     53       0.107635   0.113240   0.003092
     54       0.198680   0.213508  -0.006222
     55       0.094582   0.108389  -0.000803
     56       0.425718   0.452508  -0.010472
     57      -0.313192   0.299199  -0.008122
     58       0.339291  -0.322352   0.006461
     59      -0.236667   0.217225  -0.006855
     60      -0.335167   0.309340  -0.008469
     61      -0.185956   0.176897  -0.006664
     62      -0.328332   0.312650  -0.001575


-----------
IR SPECTRUM
-----------

 Mode    freq (cm**-1)   T**2         TX         TY         TZ
-------------------------------------------------------------------
   6:        64.89    0.356623  ( -0.116124  -0.584243  -0.042409)
   7:        85.10    0.092224  (  0.065578  -0.296494  -0.003848)
   8:       122.40    0.532810  (  0.291156   0.104338  -0.661174)
   9:       138.24    0.857429  ( -0.360116  -0.690377  -0.501124)
  10:       245.97    0.028404  ( -0.124301  -0.048742   0.102848)
  11:       285.04    0.998172  ( -0.339965   0.445557  -0.827088)
  12:       316.37    2.436481  (  0.891561   0.117088  -1.275888)
  13:       414.27    1.367101  (  0.385418  -0.129882   1.096214)
  14:       453.16    0.047440  (  0.121003   0.156741   0.090725)
  15:       742.79    5.795938  (  1.705852   1.690095   0.172001)
  16:       783.73    0.569259  ( -0.161441   0.520368  -0.521932)
  17:       793.05    2.020273  (  0.937571   0.795136  -0.713436)
  18:       840.58    5.702014  (  2.008757   1.249962  -0.323273)
  19:       874.67    1.387900  (  0.565966   0.700500   0.759528)
  20:       915.82    6.725854  (  0.436717  -2.378016  -0.938175)
  21:       945.53    2.766498  (  0.155396   1.602450   0.417735)
  22:       963.38   16.205315  (  1.595770  -1.367091  -3.433642)
  23:      1007.19   48.422175  (  3.016472   3.449952  -5.236497)
  24:      1055.16   19.568932  (  1.824727   0.487316  -4.000229)
  25:      1082.17    3.208101  (  0.189414  -0.555131   1.692351)
  26:      1109.15    2.045969  ( -0.526638  -0.142804  -1.322206)
  27:      1152.13    9.590148  (  0.500317  -3.012148  -0.516524)
  28:      1153.14    0.797047  ( -0.873978  -0.099845  -0.152447)
  29:      1157.49    5.691063  (  0.230194   0.630021   2.289355)
  30:      1178.16    0.668674  ( -0.137086   0.297126   0.749398)
  31:      1215.71    1.531622  (  0.435534  -1.152567  -0.116276)
  32:      1218.03    8.645376  ( -0.063204   2.139599   2.015812)
  33:      1270.65   11.487090  ( -1.633295  -1.219708   2.707720)
  34:      1283.31    4.567219  ( -1.830761  -0.501453   0.981875)
  35:      1296.66    0.612826  (  0.679010  -0.233482   0.311860)
  36:      1333.95    1.587845  (  0.000246   0.950245  -0.827575)
  37:      1338.90    4.376157  ( -1.813457  -0.835426  -0.624175)
  38:      1379.29    0.417056  (  0.087929   0.050927   0.637755)
  39:      1403.13    7.096425  (  0.464947   0.969251  -2.437376)
  40:      1417.04    3.126705  ( -1.127039   1.185293   0.671989)
  41:      1460.02   36.701903  ( -1.402869  -2.684378   5.246711)
  42:      1475.39   17.328553  ( -1.695513   2.640601   2.735144)
  43:      1481.55    1.244891  ( -0.001039  -0.582932   0.951357)
  44:      1483.33    4.862375  ( -0.275784  -2.034677  -0.803995)
  45:      1492.40    6.098782  (  1.115896   0.801617  -2.052065)
  46:      1493.01   12.381073  (  2.440237   2.482333   0.514138)
  47:      1504.29   12.895563  (  2.799399  -2.243959  -0.153542)
  48:      1521.53    8.524085  (  1.495626  -1.570066   1.955014)
  49:      3031.96    5.555303  (  0.823615  -0.813054   2.053267)
  50:      3045.54   17.915813  (  2.968842  -2.827311   1.052663)
  51:      3056.22   20.202210  ( -3.183081   2.649739   1.746163)
  52:      3067.87    0.184645  ( -0.027135   0.427452  -0.034534)
  53:      3080.57    5.352959  ( -1.874307   1.309438   0.353983)
  54:      3090.28   12.072687  ( -2.160185  -2.646669  -0.633588)
  55:      3128.22   23.407397  ( -3.335984  -3.408865  -0.811325)
  56:      3137.37    6.184448  ( -1.797333  -1.711729   0.154999)
  57:      3144.58   10.636208  ( -1.380538   1.888541  -2.272385)
  58:      3172.77    3.344104  (  0.269939  -1.719735  -0.560132)
  59:      3174.75    1.999054  ( -0.677909  -0.244336   1.216468)
  60:      3270.35    0.007669  ( -0.025246  -0.062952  -0.055391)
  61:      3280.59   10.384229  (  2.428528  -0.564493   2.041526)
  62:      3537.93   75.911614  ( -8.474985  -1.418550  -1.440126)

The first frequency considered to be a vibration is 6
The total number of vibrations considered is 57


--------------------------
THERMOCHEMISTRY AT 298.15K
--------------------------

Temperature         ... 298.15 K
Pressure            ... 1.00 atm
Total Mass          ... 100.18 AMU

Throughout the following assumptions are being made:
  (1) The electronic state is orbitally nondegenerate
  (2) There are no thermally accessible electronically excited states
  (3) Hindered rotations indicated by low frequency modes) are not
      treated as such but are treated as vibrations and this may
      case some error
  (4) All equations used are the standard statistical mechanics
      equations for an ideal gas
  (5) All vibrations are strinctly harmonic


------------
INNER ENERGY
------------

The inner energy is: U= E(el) + E(ZPE) + E(vib) + E(rot) + E(trans)
    E(el)   - is the total energy from the electronic structure calculation
              = E(kin-el) + E(nuc-el) + E(el-el) + E(nuc-nuc)
    E(ZPE)  - the the zero temperature vibrational energy from the frequency calculation
    E(vib)  - the the finite temperature correction to E(ZPE) due to population
              of excietd vibrational states
    E(rot)  - is the rotational thermal energy
    E(trans)- is the translational thermal energy

Summary of contributions to the inner energy U:
Electronic energy                ...   -291.29814324 Eh
Zero point energy                ...      0.19858047 Eh     124.61 kcal/mol
Thermal vibrational correction   ...      0.00568390 Eh       3.57 kcal/mol
Thermal rotational correction    ...      0.00141627 Eh       0.89 kcal/mol
Thermal translational correction ...      0.00141627 Eh       0.89 kcal/mol
-----------------------------------------------------------------------
Total thermal energy                   -291.09104633 Eh


Summary of corrections to the electronic energy:
(perhaps to be used in another calculation)
Total thermal correction                  0.00851644 Eh       5.34 kcal/mol
Non-thermal (ZPE) correction              0.19858047 Eh     124.61 kcal/mol
-----------------------------------------------------------------------
Total correction                          0.20709691 Eh     129.95 kcal/mol


--------
ENTHALPY
--------

The enthalpy is H = U + kB*T
                kB is Boltzmann's constant
Total free energy                 ...   -291.09104633 Eh 
Thermal Enthalpy correction       ...      0.00094421 Eh       0.59 kcal/mol
-----------------------------------------------------------------------
Total Enthalpy                    ...   -291.09010212 Eh


-------
ENTROPY
-------

The entropy contributions are T*S = T*(S(el)+S(vib)+S(rot)+S(trans)
     S(el)   - electronic entropy
     S(vib)  - vibrational entropy
     S(rot)  - rotational entropy
     S(trans)- translational entropy
The entropies will be listed as mutliplied by the temperature to get
units of energy

Electronic entropy                ...      0.00000000 Eh      0.00 kcal/mol
Vibrational entropy               ...      0.01068353 Eh      6.70 kcal/mol
Rotational entropy                ...      0.01228305 Eh      7.71 kcal/mol
Translational entropy             ...      0.01887386 Eh     11.84 kcal/mol
-----------------------------------------------------------------------
Final entropy term                ...      0.04184044 Eh     26.26 kcal/mol


CAUTION: The rotational entropy is not quite correctly treated here
         because it includes a symmetry number that is not yet correctly
         implemented in ORCA!
For a nonlinear molecule the correct rotational entropy is:
    S(rot) = R*(ln(qrot/sn)+1.5)
    R    = 8.31441 J/mol/K = 1.987191683e-3 kcal/mol/K
    qrot = 298888.6372207
    sn is the rotational symmetry number. We have assumed 3 here
       if it is different for your molecule then you should correct
       the printed rotational entropy by manually evaluating the equation
       as given above

For convenience we print out the resulting values for sn=1 - 12:
 sn= 1  qrot/sn=  298888.6372 T*S(rot)=     8.36 kcal/mol T*S(tot)=    26.91 kcal/mol
 sn= 2  qrot/sn=  149444.3186 T*S(rot)=     7.95 kcal/mol T*S(tot)=    26.50 kcal/mol
 sn= 3  qrot/sn=   99629.5457 T*S(rot)=     7.71 kcal/mol T*S(tot)=    26.26 kcal/mol
 sn= 4  qrot/sn=   74722.1593 T*S(rot)=     7.54 kcal/mol T*S(tot)=    26.08 kcal/mol
 sn= 5  qrot/sn=   59777.7274 T*S(rot)=     7.41 kcal/mol T*S(tot)=    25.95 kcal/mol
 sn= 6  qrot/sn=   49814.7729 T*S(rot)=     7.30 kcal/mol T*S(tot)=    25.84 kcal/mol
 sn= 7  qrot/sn=   42698.3767 T*S(rot)=     7.21 kcal/mol T*S(tot)=    25.75 kcal/mol
 sn= 8  qrot/sn=   37361.0797 T*S(rot)=     7.13 kcal/mol T*S(tot)=    25.67 kcal/mol
 sn= 9  qrot/sn=   33209.8486 T*S(rot)=     7.06 kcal/mol T*S(tot)=    25.60 kcal/mol
 sn=10  qrot/sn=   29888.8637 T*S(rot)=     6.99 kcal/mol T*S(tot)=    25.54 kcal/mol
 sn=11  qrot/sn=   27171.6943 T*S(rot)=     6.94 kcal/mol T*S(tot)=    25.49 kcal/mol
 sn=12  qrot/sn=   24907.3864 T*S(rot)=     6.89 kcal/mol T*S(tot)=    25.43 kcal/mol


-------------------
GIBBS FREE ENTHALPY
-------------------

The Gibbs free enthalpy is G = H - T*S

Total enthalpy                    ...   -291.09010212 Eh 
Total entropy correction          ...     -0.04184044 Eh    -26.26 kcal/mol
-----------------------------------------------------------------------
Final Gibbs free enthalpy         ...   -291.13194256 Eh

For completeness - the Gibbs free enthalpy minus the electronic energy
G-E(el)                           ...      0.16620068 Eh    104.29 kcal/mol


Timings for individual modules:

Sum of individual times         ...     2539.177 sec (=  42.320 min)
GTO integral calculation        ...        7.190 sec (=   0.120 min)   0.3 %
SCF iterations                  ...      170.956 sec (=   2.849 min)   6.7 %
SCF Gradient evaluation         ...       76.017 sec (=   1.267 min)   3.0 %
Geometry relaxation             ...        0.207 sec (=   0.003 min)   0.0 %
Analytical frequency calculation...     2284.807 sec (=  38.080 min)  90.0 %
                             ****ORCA TERMINATED NORMALLY****
TOTAL RUN TIME: 0 days 0 hours 42 minutes 20 seconds 896 msec
