
                                 *****************
                                 * O   R   C   A *
                                 *****************

           --- An Ab Initio, DFT and Semiempirical electronic structure package ---

                  #######################################################
                  #                        -***-                        #
                  #  Department of molecular theory and spectroscopy    #
                  #              Directorship: Frank Neese              #
                  # Max Planck Institute for Chemical Energy Conversion #
                  #                  D-45470 Muelheim/Ruhr              #
                  #                       Germany                       #
                  #                                                     #
                  #                  All rights reserved                #
                  #                        -***-                        #
                  #######################################################


                         Program Version 3.0.3 - RELEASE   -


 With contributions from (in alphabetic order):
   Ute Becker             : Parallelization
   Dmytro Bykov           : SCF Hessian
   Dmitry Ganyushin       : Spin-Orbit,Spin-Spin,Magnetic field MRCI
   Andreas Hansen         : Spin unrestricted coupled pair/coupled cluster methods
   Dimitrios Liakos       : Extrapolation schemes; parallel MDCI
   Robert Izsak           : Overlap fitted RIJCOSX, COSX-SCS-MP3
   Christian Kollmar      : KDIIS, OOCD, Brueckner-CCSD(T), CCSD density
   Simone Kossmann        : Meta GGA functionals, TD-DFT gradient, OOMP2, MP2 Hessian
   Taras Petrenko         : DFT Hessian,TD-DFT gradient, ASA and ECA modules, normal mode analysis, Resonance Raman, ABS, FL, XAS/XES, NRVS
   Christoph Reimann      : Effective Core Potentials
   Michael Roemelt        : Restricted open shell CIS
   Christoph Riplinger    : Improved optimizer, TS searches, QM/MM, DLPNO-CCSD
   Barbara Sandhoefer     : DKH picture change effects
   Igor Schapiro          : Molecular dynamics
   Kantharuban Sivalingam : CASSCF convergence, NEVPT2
   Boris Wezisla          : Elementary symmetry handling
   Frank Wennmohs         : Technical directorship


 We gratefully acknowledge several colleagues who have allowed us to
 interface, adapt or use parts of their codes:
   Stefan Grimme, W. Hujo, H. Kruse, T. Risthaus : VdW corrections, initial TS optimization,
                                                   DFT functionals, gCP
   Ed Valeev                                     : LibInt (2-el integral package), F12 methods
   Garnet Chan, S. Sharma, R. Olivares           : DMRG
   Ulf Ekstrom                                   : XCFun DFT Library
   Mihaly Kallay                                 : mrcc  (arbitrary order and MRCC methods)
   Andreas Klamt, Michael Diedenhofen            : otool_cosmo (COSMO solvation model)
   Frank Weinhold                                : gennbo (NPA and NBO analysis)
   Christopher J. Cramer and Donald G. Truhlar   : smd solvation model


 Your calculation uses the libint2 library for the computation of 2-el integrals
 For citations please refer to: http://libint.valeyev.net

 This ORCA versions uses:
   CBLAS   interface :  Fast vector & matrix operations
   LAPACKE interface :  Fast linear algebra routines
   SCALAPACK package :  Parallel linear algebra routines


Your calculation utilizes the basis: Ahlrichs-TZV
Cite in your paper:
H - Kr: A. Schaefer, H. Horn and R. Ahlrichs, J. Chem. Phys. 97, 2571 (1992).

The def2-TZV basis will be loaded
Cite in your paper:
 	F. Weigend, R. Ahlrichs, Phys. Chem. Chem. Phys. 2005, 7, 3297.

================================================================================
                                        WARNINGS
                       Please study these warnings very carefully!
================================================================================
Now building the actual basis set
WARNING: Geometry optimizations can change the point-group symmetry!

WARNING: Geometry Optimization
  ===> : Switching off AutoStart
         For restart on a previous wavefunction, please use MOREAD


INFO   : the flag for use of LIBINT has been found!

================================================================================
                                       INPUT FILE
================================================================================
NAME = 2338_+.inp
|  1> ! NORI PBE0 def2-TZVP UseSym TightOPT Freq TightSCF Grid3 FinalGrid5 XYZFile
|  2> % pal
|  3>     nprocs 8
|  4> end
|  5> %method
|  6>     SymThresh 5.0e-2
|  7> end
|  8> % geom 
|  9>     MaxIter 10
| 10> end 
| 11> % maxcore 2000
| 12> % output
| 13>     printlevel mini
| 14>     print[ P_Basis ] 0
| 15>     print[ P_SCFInfo ] 1
| 16>     print[ P_SCFIterInfo ] 1
| 17>     print[ P_OrbEn ] 0
| 18>     print[ P_Cartesian ] 0
| 19> end
| 20> % elprop
| 21>     Dipole false
| 22> end
| 23> *xyz 1 1
| 24>  C        1.9828251188    -2.8872111458     0.3016865466 
| 25>  C        2.3248642864    -1.6529203226    -0.0365317215 
| 26>  C        3.2134169551    -0.7969513429     0.7982550219 
| 27>  N        4.4810332001    -0.4785031597     0.0792017906 
| 28>  C        5.5579168380     0.3204327542     0.7856706310 
| 29>  C        6.6253984483    -0.6085744512     0.1984411520 
| 30>  C        5.4947492350    -1.5798111166    -0.1614611208 
| 31>  H        1.3109337818    -3.4731237716    -0.3138418863 
| 32>  H        2.3396396488    -3.3510097634     1.2159293671 
| 33>  H        1.9237085381    -1.2049234686    -0.9431172317 
| 34>  H        3.4936176597    -1.2912676326     1.7296858447 
| 35>  H        2.7498336799     0.1643393447     1.0400834300 
| 36>  H        4.2469035274    -0.0340038162    -0.8085368085 
| 37>  H        5.4159380097     0.2124506852     1.8607237567 
| 38>  H        5.5563359952     1.3734774143     0.5113794762 
| 39>  H        7.1221899388    -0.1888094435    -0.6747752508 
| 40>  H        7.3745373022    -0.9796528826     0.8928829876 
| 41>  H        5.4449703815    -1.9946082031    -1.1653295091 
| 42>  H        5.3290174552    -2.3662196780     0.5735535243 
| 43> *
| 44> 
| 45>                          ****END OF INPUT****
================================================================================

The point group is C1 - hence turning off symmetry
If this is a round-off problem, please increase the symmetry
        detection tolerance (%method SymThresh)


                       *****************************
                       * Geometry Optimization Run *
                       *****************************

Geometry optimization settings:
Update method            Update   .... BFGS
Choice of coordinates    CoordSys .... Redundant Internals
Initial Hessian          InHess   .... Almoef's Model

Convergence Tolerances:
Energy Change            TolE     ....  1.0000e-06 Eh
Max. Gradient            TolMAXG  ....  1.0000e-04 Eh/bohr
RMS Gradient             TolRMSG  ....  3.0000e-05 Eh/bohr
Max. Displacement        TolMAXD  ....  1.0000e-03 bohr
RMS Displacement         TolRMSD  ....  6.0000e-04 bohr

------------------------------------------------------------------------------
                        ORCA OPTIMIZATION COORDINATE SETUP
------------------------------------------------------------------------------

The optimization will be done in new redundant internal coordinates
Making redundant internal coordinates   ...  (new redundants) done
Evaluating the initial hessian          ...  (Almloef) done
Evaluating the coordinates              ...  done
Calculating the B-matrix                .... done
Calculating the G-matrix                .... done
Diagonalizing the G-matrix              .... done
Small eigenvalue found = 2.787e-02
The first mode is                       ....   59
The number of degrees of freedom        ....   51

    -----------------------------------------------------------------
                    Redundant Internal Coordinates


    -----------------------------------------------------------------
         Definition                    Initial Value    Approx d2E/dq
    -----------------------------------------------------------------
      1. B(C   1,C   0)                  1.3247         0.794154   
      2. B(C   2,C   1)                  1.4897         0.433254   
      3. B(N   3,C   2)                  1.4917         0.385080   
      4. B(C   4,N   3)                  1.5156         0.352754   
      5. B(C   5,C   4)                  1.5321         0.370669   
      6. B(C   6,C   5)                  1.5334         0.368990   
      7. B(C   6,N   3)                  1.5161         0.352180   
      8. B(H   7,C   0)                  1.0833         0.369031   
      9. B(H   8,C   0)                  1.0855         0.366130   
     10. B(H   9,C   1)                  1.0879         0.362890   
     11. B(H  10,C   2)                  1.0911         0.358693   
     12. B(H  11,C   2)                  1.0943         0.354470   
     13. B(H  12,N   3)                  1.0200         0.417043   
     14. B(H  13,C   4)                  1.0898         0.360429   
     15. B(H  14,C   4)                  1.0882         0.362512   
     16. B(H  15,C   5)                  1.0888         0.361675   
     17. B(H  16,C   5)                  1.0868         0.364344   
     18. B(H  17,C   6)                  1.0873         0.363650   
     19. B(H  18,C   6)                  1.0891         0.361285   
     20. A(H   7,C   0,H   8)          116.8292         0.292726   
     21. A(C   1,C   0,H   8)          121.8890         0.369169   
     22. A(C   1,C   0,H   7)          121.2652         0.369670   
     23. A(C   0,C   1,H   9)          120.0825         0.368606   
     24. A(C   0,C   1,C   2)          123.1151         0.425517   
     25. A(C   2,C   1,H   9)          116.7640         0.332772   
     26. A(N   3,C   2,H  10)          106.8570         0.323782   
     27. A(N   3,C   2,H  11)          106.1995         0.323154   
     28. A(H  10,C   2,H  11)          108.5500         0.289943   
     29. A(C   1,C   2,H  11)          112.0811         0.331480   
     30. A(C   1,C   2,N   3)          111.0638         0.372314   
     31. A(C   1,C   2,H  10)          111.7928         0.332131   
     32. A(C   4,N   3,C   6)           88.9587         0.351843   
     33. A(C   2,N   3,C   4)          119.4472         0.357210   
     34. A(C   6,N   3,H  12)          109.3828         0.324294   
     35. A(C   4,N   3,H  12)          109.8190         0.324381   
     36. A(C   2,N   3,H  12)          108.5109         0.329099   
     37. A(C   2,N   3,C   6)          119.3167         0.357111   
     38. A(H  13,C   4,H  14)          110.1430         0.291187   
     39. A(C   5,C   4,H  14)          119.4178         0.324258   
     40. A(N   3,C   4,H  14)          113.0535         0.319721   
     41. A(C   5,C   4,H  13)          114.1295         0.323952   
     42. A(N   3,C   4,H  13)          108.3630         0.319420   
     43. A(N   3,C   4,C   5)           89.8144         0.357111   
     44. A(C   6,C   5,H  16)          116.2299         0.324285   
     45. A(C   4,C   5,H  16)          116.2562         0.324527   
     46. A(C   6,C   5,H  15)          113.1034         0.323894   
     47. A(C   4,C   5,C   6)           87.7236         0.362103   
     48. A(C   4,C   5,H  15)          113.0490         0.324135   
     49. A(H  15,C   5,H  16)          109.2430         0.291575   
     50. A(H  17,C   6,H  18)          109.9167         0.291438   
     51. A(C   5,C   6,H  18)          114.2779         0.323836   
     52. A(N   3,C   6,H  18)          108.4000         0.319459   
     53. A(C   5,C   6,H  17)          119.4779         0.324184   
     54. A(N   3,C   6,H  17)          113.1455         0.319800   
     55. A(N   3,C   6,C   5)           89.7513         0.356737   
     56. D(H   9,C   1,C   0,H   8)   -177.9647         0.045503   
     57. D(C   2,C   1,C   0,H   7)    178.1812         0.045503   
     58. D(H   9,C   1,C   0,H   7)      0.5080         0.045503   
     59. D(C   2,C   1,C   0,H   8)     -0.2915         0.045503   
     60. D(H  11,C   2,C   1,C   0)   -125.1936         0.013859   
     61. D(N   3,C   2,C   1,C   0)    116.1951         0.013859   
     62. D(H  10,C   2,C   1,C   0)     -3.0572         0.013859   
     63. D(H  10,C   2,C   1,H   9)    174.6878         0.013859   
     64. D(H  11,C   2,C   1,H   9)     52.5514         0.013859   
     65. D(N   3,C   2,C   1,H   9)    -66.0599         0.013859   
     66. D(C   6,N   3,C   2,C   1)    -69.6084         0.013570   
     67. D(C   4,N   3,C   2,H  11)     61.2494         0.013570   
     68. D(C   4,N   3,C   2,C   1)   -176.6517         0.013570   
     69. D(C   6,N   3,C   2,H  10)     52.5591         0.013570   
     70. D(H  12,N   3,C   2,H  10)    178.6739         0.013570   
     71. D(C   4,N   3,C   2,H  10)    -54.4842         0.013570   
     72. D(H  12,N   3,C   2,C   1)     56.5064         0.013570   
     73. D(H  12,N   3,C   2,H  11)    -65.5925         0.013570   
     74. D(C   6,N   3,C   2,H  11)    168.2927         0.013570   
     75. D(H  14,C   4,N   3,H  12)     26.5770         0.011461   
     76. D(H  14,C   4,N   3,C   6)    136.8370         0.011461   
     77. D(H  13,C   4,N   3,C   6)   -100.7786         0.011461   
     78. D(H  13,C   4,N   3,C   2)     22.7332         0.011461   
     79. D(C   5,C   4,N   3,H  12)    -95.5926         0.011461   
     80. D(C   5,C   4,N   3,C   6)     14.6674         0.011461   
     81. D(C   5,C   4,N   3,C   2)    138.1791         0.011461   
     82. D(H  14,C   4,N   3,C   2)    -99.6512         0.011461   
     83. D(H  13,C   4,N   3,H  12)    148.9614         0.011461   
     84. D(C   6,C   5,C   4,H  14)   -131.1056         0.010981   
     85. D(C   6,C   5,C   4,H  13)     95.5981         0.010981   
     86. D(C   6,C   5,C   4,N   3)    -14.5074         0.010981   
     87. D(H  16,C   5,C   4,H  14)    110.6260         0.010981   
     88. D(H  16,C   5,C   4,H  13)    -22.6703         0.010981   
     89. D(H  16,C   5,C   4,N   3)   -132.7758         0.010981   
     90. D(H  15,C   5,C   4,H  14)    -16.9097         0.010981   
     91. D(H  15,C   5,C   4,H  13)   -150.2061         0.010981   
     92. D(H  15,C   5,C   4,N   3)     99.6885         0.010981   
     93. D(H  18,C   6,C   5,H  15)    150.2187         0.010888   
     94. D(H  18,C   6,C   5,C   4)    -95.6371         0.010888   
     95. D(H  17,C   6,C   5,H  16)   -110.5205         0.010888   
     96. D(H  17,C   6,C   5,H  15)     17.0429         0.010888   
     97. D(H  17,C   6,C   5,C   4)    131.1871         0.010888   
     98. D(N   3,C   6,C   5,H  16)    132.7955         0.010888   
     99. D(N   3,C   6,C   5,H  15)    -99.6411         0.010888   
    100. D(N   3,C   6,C   5,C   4)     14.5031         0.010888   
    101. D(H  18,C   6,N   3,H  12)   -148.3925         0.011426   
    102. D(H  18,C   6,N   3,C   4)    100.9314         0.011426   
    103. D(H  18,C   6,N   3,C   2)    -22.6911         0.011426   
    104. D(H  17,C   6,N   3,H  12)    -26.2088         0.011426   
    105. D(H  17,C   6,N   3,C   4)   -136.8849         0.011426   
    106. D(H  17,C   6,N   3,C   2)     99.4926         0.011426   
    107. D(C   5,C   6,N   3,H  12)     96.0208         0.011426   
    108. D(C   5,C   6,N   3,C   4)    -14.6553         0.011426   
    109. D(H  18,C   6,C   5,H  16)     22.6553         0.010888   
    110. D(C   5,C   6,N   3,C   2)   -138.2778         0.011426   
    -----------------------------------------------------------------

Number of atoms                         .... 19
Number of degrees of freedom            .... 110

         *************************************************************
         *                GEOMETRY OPTIMIZATION CYCLE   1            *
         *************************************************************


           ************************************************************
           *        Program running with 8 parallel MPI-processes     *
           *              working on a common directory               *
           ************************************************************
           ************************************************************
           *              Shut down parallel processing               *
           ************************************************************


           ************************************************************
           *        Program running with 8 parallel MPI-processes     *
           *              working on a common directory               *
           ************************************************************
------------
SCF SETTINGS
------------
Hamiltonian:
 Density Functional     Method          .... DFT(GTOs)
 Exchange Functional    Exchange        .... PBE
   PBE kappa parameter  XKappa          ....  0.804000
 Correlation Functional Correlation     .... PBE
 LDA part of GGA corr.  LDAOpt          .... PW91-LDA
 Gradients option       PostSCFGGA      .... off
 Hybrid DFT is turned on
   Fraction HF Exchange ScalHFX         ....  0.250000
   Scaling of DF-GGA-X  ScalDFX         ....  0.750000
   Scaling of DF-GGA-C  ScalDFC         ....  1.000000
   Scaling of DF-LDA-C  ScalLDAC        ....  1.000000
   Perturbative correction              ....  0.000000
   NL short-range parameter             ....  6.900000


General Settings:
 Integral files         IntName         .... 2338_+
 Hartree-Fock type      HFTyp           .... RHF
 Total Charge           Charge          ....    1
 Multiplicity           Mult            ....    1
 Number of Electrons    NEL             ....   54
 Basis Dimension        Dim             ....  289
 Nuclear Repulsion      ENuc            ....    312.9835234089 Eh

Convergence Acceleration:
 DIIS                   CNVDIIS         .... on
   Start iteration      DIISMaxIt       ....    12
   Startup error        DIISStart       ....  0.200000
   # of expansion vecs  DIISMaxEq       ....     5
   Bias factor          DIISBfac        ....   1.050
   Max. coefficient     DIISMaxC        ....  10.000
 Newton-Raphson         CNVNR           .... off
 SOSCF                  CNVSOSCF        .... on
   Start iteration      SOSCFMaxIt      ....   150
   Startup grad/error   SOSCFStart      ....  0.003300
 Level Shifting         CNVShift        .... on
   Level shift para.    LevelShift      ....    0.2500
   Turn off err/grad.   ShiftErr        ....    0.0010
 Zerner damping         CNVZerner       .... off
 Static damping         CNVDamp         .... on
   Fraction old density DampFac         ....    0.7000
   Max. Damping (<1)    DampMax         ....    0.9800
   Min. Damping (>=0)   DampMin         ....    0.0000
   Turn off err/grad.   DampErr         ....    0.1000
 Fernandez-Rico         CNVRico         .... off

SCF Procedure:
 Maximum # iterations   MaxIter         ....   125
 SCF integral mode      SCFMode         .... Direct
   Integral package                     .... LIBINT
 Reset frequeny         DirectResetFreq ....    20
 Integral Threshold     Thresh          ....  2.500e-11 Eh
 Primitive CutOff       TCut            ....  2.500e-12 Eh

Convergence Tolerance:
 Convergence Check Mode ConvCheckMode   .... Total+1el-Energy
 Energy Change          TolE            ....  1.000e-08 Eh
 1-El. energy change                    ....  1.000e-05 Eh
 Orbital Gradient       TolG            ....  1.000e-05
 Orbital Rotation angle TolX            ....  1.000e-05
 DIIS Error             TolErr          ....  5.000e-07


Diagonalization of the overlap matrix:
Smallest eigenvalue                        ... 1.483e-04
Time for diagonalization                   ...    0.375 sec
Threshold for overlap eigenvalues          ... 1.000e-08
Number of eigenvalues below threshold      ... 0
Time for construction of square roots      ...    0.064 sec
Total time needed                          ...    0.439 sec

-------------------
DFT GRID GENERATION
-------------------

General Integration Accuracy     IntAcc      ...  4.340
Radial Grid Type                 RadialGrid  ... Gauss-Chebyshev
Angular Grid (max. acc.)         AngularGrid ... Lebedev-194
Angular grid pruning method      GridPruning ... 3 (G Style)
Weight generation scheme         WeightScheme... Becke
Basis function cutoff            BFCut       ...    1.0000e-11
Integration weight cutoff        WCut        ...    1.0000e-14
Grids for H and He will be reduced by one unit

# of grid points (after initial pruning)     ...  41338 (   0.0 sec)
# of grid points (after weights+screening)   ...  37706 (   0.2 sec)
nearest neighbour list constructed           ...    0.0 sec
Grid point re-assignment to atoms done       ...    0.0 sec
Grid point division into batches done        ...    0.1 sec
Reduced shell lists constructed in    0.1 sec

Total number of grid points                  ...    37706
Total number of batches                      ...      600
Average number of points per batch           ...       62
Average number of grid points per atom       ...     1985
Average number of shells per batch           ...    92.53 (74.02%)
Average number of basis functions per batch  ...   219.05 (75.80%)
Average number of large shells per batch     ...    73.66 (79.61%)
Average number of large basis fcns per batch ...   172.53 (78.76%)
Maximum spatial batch extension              ...   6.07,  7.69,  2.66 au
Average spatial batch extension              ...   0.18,  0.19,  0.17 au

Time for grid setup =    0.670 sec

Loading Hartree-Fock densities                     ... done
Calculating cut-offs                               ... done
Setting up the integral package                    ... done
Initializing the effective Hamiltonian             ... done
Starting the Coulomb interaction                   ... done (   0.0 sec)
Reading the grid                                   ... done
Mapping shells                                     ... done
Starting the XC term evaluation                    ... done (   0.4 sec)
  promolecular density results
     # of electrons  =     54.995531568
     EX              =    -40.795357841
     EC              =     -1.802734334
     EX+EC           =    -42.598092176
Transforming the Hamiltonian                       ... done (   0.0 sec)
Diagonalizing the Hamiltonian                      ... done (   0.3 sec)
Back transforming the eigenvectors                 ... done (   0.0 sec)
Now organizing SCF variables                       ... done
--------------
SCF ITERATIONS
--------------
ITER       Energy         Delta-E        Max-DP      RMS-DP      [F,P]     Damp
               ***  Starting incremental Fock matrix formation  ***
  0   -289.9404593885   0.000000000000 0.03118933  0.00066895  0.1543187 0.7000
  1   -289.9995050871  -0.059045698600 0.01877039  0.00052816  0.0829663 0.7000
                               ***Turning on DIIS***
  2   -290.0267405484  -0.027235461287 0.03194066  0.00103480  0.0330683 0.0000
  3   -290.0665548349  -0.039814286499 0.01585722  0.00033386  0.0451665 0.0000
  4   -290.0758456531  -0.009290818164 0.00331988  0.00010375  0.0049581 0.0000
                      *** Initiating the SOSCF procedure ***
                           *** Shutting down DIIS ***
                      *** Re-Reading the Fockian *** 
                      *** Removing any level shift *** 
ITER      Energy       Delta-E        Grad      Rot      Max-DP    RMS-DP
  5   -290.07613959  -0.0002939400  0.000786  0.000786  0.001364  0.000039
               *** Restarting incremental Fock matrix formation ***
  6   -290.07616396  -0.0000243646  0.000168  0.000526  0.000911  0.000028
  7   -290.07616328   0.0000006791  0.000323  0.000550  0.000327  0.000007
  8   -290.07616667  -0.0000033908  0.000078  0.000245  0.000133  0.000004
  9   -290.07616663   0.0000000347  0.000085  0.000131  0.000081  0.000001
 10   -290.07616675  -0.0000001162  0.000005  0.000012  0.000016  0.000000
 11   -290.07616675   0.0000000007  0.000006  0.000007  0.000009  0.000000
                 **** Energy Check signals convergence ****
              ***Rediagonalizing the Fockian in SOSCF/NRSCF***

               *****************************************************
               *                     SUCCESS                       *
               *           SCF CONVERGED AFTER  12 CYCLES          *
               *****************************************************

Setting up the final grid:

General Integration Accuracy     IntAcc      ...  5.010
Radial Grid Type                 RadialGrid  ... Gauss-Chebyshev
Angular Grid (max. acc.)         AngularGrid ... Lebedev-434
Angular grid pruning method      GridPruning ... 3 (G Style)
Weight generation scheme         WeightScheme... Becke
Basis function cutoff            BFCut       ...    1.0000e-11
Integration weight cutoff        WCut        ...    1.0000e-14
Grids for H and He will be reduced by one unit

# of grid points (after initial pruning)     ... 155082 (   0.0 sec)
# of grid points (after weights+screening)   ... 139775 (   1.1 sec)
nearest neighbour list constructed           ...    0.0 sec
Grid point re-assignment to atoms done       ...    0.0 sec
Grid point division into batches done        ...    1.0 sec
Reduced shell lists constructed in    1.2 sec

Total number of grid points                  ...   139775
Total number of batches                      ...     2192
Average number of points per batch           ...       63
Average number of grid points per atom       ...     7357
Average number of shells per batch           ...    92.07 (73.65%)
Average number of basis functions per batch  ...   218.22 (75.51%)
Average number of large shells per batch     ...    73.03 (79.33%)
Average number of large basis fcns per batch ...   171.78 (78.72%)
Maximum spatial batch extension              ...   4.06,  5.14,  3.12 au
Average spatial batch extension              ...   0.11,  0.11,  0.11 au

Final grid set up in    2.9 sec
Final integration                            ... done (   1.0 sec)
Change in XC energy                          ...     0.000523619
Integrated number of electrons               ...    54.000016934
Previous integrated no of electrons          ...    54.001000650
Total Energy       :         -290.07564313 Eh           -7893.35954 eV
  Last Energy change         ...   -2.6172e-09  Tolerance :   1.0000e-08
  Last MAX-Density change    ...    7.2579e-07  Tolerance :   1.0000e-07
             **** THE GBW FILE WAS UPDATED (2338_+.gbw) ****
             **** DENSITY FILE WAS UPDATED (2338_+.scfp.tmp) ****
             **** ENERGY FILE WAS UPDATED (2338_+.en.tmp) ****
Total SCF time: 0 days 0 hours 1 min 33 sec 
           ************************************************************
           *              Shut down parallel processing               *
           ************************************************************

-------------------------   --------------------
FINAL SINGLE POINT ENERGY      -290.075643133655
-------------------------   --------------------



           ************************************************************
           *        Program running with 8 parallel MPI-processes     *
           *              working on a common directory               *
           ************************************************************
------------------------------------------------------------------------------
                         ORCA SCF GRADIENT CALCULATION
------------------------------------------------------------------------------

Gradient of the Kohn-Sham DFT energy:
Kohn-Sham wavefunction type      ... RKS
Hartree-Fock exchange scaling    ...    0.250
Number of operators              ...    1
Number of atoms                  ...   19
Basis set dimensions             ...  289
Integral neglect threshold       ... 2.5e-11
Integral primitive cutoff        ... 2.5e-12

Nuclear repulsion gradient       ... done
One Electron Gradient            ... done
Pre-screening matrix             ... done
Starting the two electron gradient:
Two electron gradient done
Exchange-correlation gradient    ... done

------------------
CARTESIAN GRADIENT
------------------

   1   C   :   -0.000046572    0.000063990    0.000235809
   2   C   :    0.000095420   -0.000088767   -0.000274085
   3   C   :   -0.000322480    0.000029297    0.000145935
   4   N   :   -0.000026592    0.000038376   -0.000098418
   5   C   :    0.000189168   -0.000399084   -0.000034323
   6   C   :    0.000187268   -0.000115048    0.000232060
   7   C   :    0.000171740    0.000047545    0.000155127
   8   H   :    0.000084947   -0.000066300   -0.000031021
   9   H   :    0.000068815    0.000003295    0.000092256
  10   H   :   -0.000097002    0.000027070   -0.000052900
  11   H   :    0.000087079   -0.000002597    0.000082939
  12   H   :   -0.000018363   -0.000014196   -0.000043831
  13   H   :    0.000065116   -0.000012728   -0.000057692
  14   H   :   -0.000112590    0.000297297   -0.000144563
  15   H   :    0.000001908    0.000040910    0.000114074
  16   H   :   -0.000083978    0.000110387   -0.000091145
  17   H   :   -0.000145449    0.000061687   -0.000069871
  18   H   :   -0.000008577    0.000019722   -0.000041718
  19   H   :   -0.000089858   -0.000040857   -0.000118632

Norm of the cartesian gradient     ...    0.000964203
RMS gradient                       ...    0.000127712
MAX gradient                       ...    0.000399084

-------
TIMINGS
-------

Total SCF gradient time            ...       36.171 sec

One electron gradient       ....       0.152 sec  (  0.4%)
Prescreening matrices       ....       0.360 sec  (  1.0%)
Two electron gradient       ....      30.903 sec  ( 85.4%)
XC gradient                 ....       4.193 sec  ( 11.6%)
           ************************************************************
           *              Shut down parallel processing               *
           ************************************************************
------------------------------------------------------------------------------
                         ORCA GEOMETRY RELAXATION STEP
------------------------------------------------------------------------------

Reading the OPT-File                    .... done
Getting information on internals        .... done
Copying old internal coords+grads       .... done
Making the new internal coordinates     .... (new redundants).... done
Validating the new internal coordinates .... (new redundants).... done
Calculating the B-matrix                .... done
Calculating the G,G- and P matrices     .... done
Transforming gradient to internals      .... done
Projecting the internal gradient        .... done
Number of atoms                         ....  19
Number of internal coordinates          .... 110
Current Energy                          ....  -290.075643134 Eh
Current gradient norm                   ....     0.000964203 Eh/bohr
Maximum allowed component of the step   ....  0.300
Current trust radius                    ....  0.300
Evaluating the initial hessian          ....  (Almloef) done
Projecting the Hessian                  .... done
Forming the augmented Hessian           .... done
Diagonalizing the augmented Hessian     .... done
Last element of RFO vector              ....  0.999974277
Lowest eigenvalues of augmented Hessian:
 -0.000002159  0.011921471  0.013570328  0.013858894  0.027047373
Length of the computed step             ....  0.007172757
The final length of the internal step   ....  0.007172757
Converting the step to cartesian space:
 Initial RMS(Int)=    0.0006838955
Transforming coordinates:
 Iter   0:  RMS(Cart)=    0.0018438522 RMS(Int)=    0.0006838955
 Iter   1:  RMS(Cart)=    0.0000016065 RMS(Int)=    0.0000007375
 Iter   2:  RMS(Cart)=    0.0000000028 RMS(Int)=    0.0000000009
done
Storing new coordinates                 .... done

                                .--------------------.
          ----------------------|Geometry convergence|---------------------
          Item                value                 Tolerance   Converged
          -----------------------------------------------------------------
          RMS gradient        0.00006737            0.00003000      NO
          MAX gradient        0.00034895            0.00010000      NO
          RMS step            0.00068390            0.00060000      NO
          MAX step            0.00254293            0.00100000      NO
          ....................................................
          Max(Bonds)      0.0005      Max(Angles)    0.03
          Max(Dihed)        0.15      Max(Improp)    0.00
          -----------------------------------------------------------------

The optimization has not yet converged - more geometry cycles are needed


    ---------------------------------------------------------------------------
                         Redundant Internal Coordinates
                            (Angstroem and degrees)

        Definition                    Value    dE/dq     Step     New-Value
    ----------------------------------------------------------------------------
     1. B(C   1,C   0)                1.3247 -0.000298  0.0002    1.3249   
     2. B(C   2,C   1)                1.4897  0.000115 -0.0001    1.4895   
     3. B(N   3,C   2)                1.4917 -0.000197  0.0003    1.4920   
     4. B(C   4,N   3)                1.5156 -0.000079  0.0001    1.5157   
     5. B(C   5,C   4)                1.5321 -0.000057  0.0001    1.5322   
     6. B(C   6,C   5)                1.5334  0.000051 -0.0001    1.5333   
     7. B(C   6,N   3)                1.5161 -0.000043  0.0001    1.5161   
     8. B(H   7,C   0)                1.0833  0.000108 -0.0002    1.0832   
     9. B(H   8,C   0)                1.0855 -0.000095  0.0001    1.0856   
    10. B(H   9,C   1)                1.0879 -0.000113  0.0002    1.0881   
    11. B(H  10,C   2)                1.0911 -0.000105  0.0002    1.0912   
    12. B(H  11,C   2)                1.0943 -0.000044  0.0001    1.0944   
    13. B(H  12,N   3)                1.0200  0.000015 -0.0000    1.0200   
    14. B(H  13,C   4)                1.0898  0.000349 -0.0005    1.0892   
    15. B(H  14,C   4)                1.0882  0.000115 -0.0002    1.0880   
    16. B(H  15,C   5)                1.0888 -0.000139  0.0002    1.0890   
    17. B(H  16,C   5)                1.0868  0.000166 -0.0002    1.0866   
    18. B(H  17,C   6)                1.0873 -0.000017  0.0000    1.0874   
    19. B(H  18,C   6)                1.0891  0.000116 -0.0002    1.0889   
    20. A(H   7,C   0,H   8)          116.83  0.000054   -0.01    116.82   
    21. A(C   1,C   0,H   8)          121.89 -0.000053    0.01    121.90   
    22. A(C   1,C   0,H   7)          121.27 -0.000001    0.00    121.27   
    23. A(C   0,C   1,H   9)          120.08 -0.000054    0.01    120.09   
    24. A(C   0,C   1,C   2)          123.12  0.000104   -0.01    123.10   
    25. A(C   2,C   1,H   9)          116.76 -0.000050    0.01    116.77   
    26. A(N   3,C   2,H  10)          106.86  0.000065   -0.02    106.83   
    27. A(N   3,C   2,H  11)          106.20  0.000002    0.01    106.21   
    28. A(H  10,C   2,H  11)          108.55 -0.000032    0.01    108.56   
    29. A(C   1,C   2,H  11)          112.08 -0.000007    0.01    112.10   
    30. A(C   1,C   2,N   3)          111.06 -0.000073    0.01    111.07   
    31. A(C   1,C   2,H  10)          111.79  0.000047   -0.02    111.77   
    32. A(C   4,N   3,C   6)           88.96  0.000009   -0.01     88.95   
    33. A(C   2,N   3,C   4)          119.45 -0.000059    0.02    119.47   
    34. A(C   6,N   3,H  12)          109.38 -0.000006    0.00    109.39   
    35. A(C   4,N   3,H  12)          109.82  0.000044   -0.01    109.81   
    36. A(C   2,N   3,H  12)          108.51 -0.000030    0.01    108.53   
    37. A(C   2,N   3,C   6)          119.32  0.000053   -0.03    119.29   
    38. A(H  13,C   4,H  14)          110.14 -0.000000    0.01    110.15   
    39. A(C   5,C   4,H  14)          119.42 -0.000029   -0.00    119.42   
    40. A(N   3,C   4,H  14)          113.05  0.000022   -0.01    113.04   
    41. A(C   5,C   4,H  13)          114.13  0.000005    0.01    114.14   
    42. A(N   3,C   4,H  13)          108.36 -0.000028    0.01    108.37   
    43. A(N   3,C   4,C   5)           89.81  0.000036   -0.01     89.80   
    44. A(C   6,C   5,H  16)          116.23 -0.000011    0.01    116.24   
    45. A(C   4,C   5,H  16)          116.26  0.000007    0.01    116.26   
    46. A(C   6,C   5,H  15)          113.10  0.000048   -0.02    113.08   
    47. A(C   4,C   5,C   6)           87.72 -0.000030    0.00     87.73   
    48. A(C   4,C   5,H  15)          113.05  0.000010   -0.01    113.04   
    49. A(H  15,C   5,H  16)          109.24 -0.000021    0.01    109.25   
    50. A(H  17,C   6,H  18)          109.92 -0.000031    0.01    109.93   
    51. A(C   5,C   6,H  18)          114.28 -0.000036    0.01    114.29   
    52. A(N   3,C   6,H  18)          108.40  0.000041   -0.02    108.38   
    53. A(C   5,C   6,H  17)          119.48  0.000040   -0.01    119.47   
    54. A(N   3,C   6,H  17)          113.15  0.000011   -0.00    113.14   
    55. A(N   3,C   6,C   5)           89.75 -0.000014   -0.00     89.75   
    56. D(H   9,C   1,C   0,H   8)   -177.96  0.000030   -0.04   -178.00   
    57. D(C   2,C   1,C   0,H   7)    178.18  0.000002   -0.00    178.18   
    58. D(H   9,C   1,C   0,H   7)      0.51  0.000006   -0.01      0.50   
    59. D(C   2,C   1,C   0,H   8)     -0.29  0.000026   -0.03     -0.32   
    60. D(H  11,C   2,C   1,C   0)   -125.19  0.000018   -0.11   -125.31   
    61. D(N   3,C   2,C   1,C   0)    116.20  0.000069   -0.15    116.05   
    62. D(H  10,C   2,C   1,C   0)     -3.06  0.000005   -0.11     -3.16   
    63. D(H  10,C   2,C   1,H   9)    174.69  0.000001   -0.10    174.59   
    64. D(H  11,C   2,C   1,H   9)     52.55  0.000014   -0.11     52.44   
    65. D(N   3,C   2,C   1,H   9)    -66.06  0.000065   -0.14    -66.20   
    66. D(C   6,N   3,C   2,C   1)    -69.61 -0.000044    0.06    -69.55   
    67. D(C   4,N   3,C   2,H  11)     61.25 -0.000003    0.04     61.29   
    68. D(C   4,N   3,C   2,C   1)   -176.65 -0.000053    0.07   -176.58   
    69. D(C   6,N   3,C   2,H  10)     52.56  0.000011    0.02     52.58   
    70. D(H  12,N   3,C   2,H  10)    178.67  0.000018    0.02    178.70   
    71. D(C   4,N   3,C   2,H  10)    -54.48  0.000003    0.04    -54.45   
    72. D(H  12,N   3,C   2,C   1)     56.51 -0.000038    0.06     56.56   
    73. D(H  12,N   3,C   2,H  11)    -65.59  0.000012    0.03    -65.57   
    74. D(C   6,N   3,C   2,H  11)    168.29  0.000006    0.03    168.32   
    75. D(H  14,C   4,N   3,H  12)     26.58 -0.000006    0.02     26.60   
    76. D(H  14,C   4,N   3,C   6)    136.84 -0.000004    0.02    136.86   
    77. D(H  13,C   4,N   3,C   6)   -100.78 -0.000010    0.03   -100.75   
    78. D(H  13,C   4,N   3,C   2)     22.73  0.000038   -0.00     22.73   
    79. D(C   5,C   4,N   3,H  12)    -95.59  0.000002    0.03    -95.56   
    80. D(C   5,C   4,N   3,C   6)     14.67  0.000004    0.03     14.70   
    81. D(C   5,C   4,N   3,C   2)    138.18  0.000053    0.00    138.18   
    82. D(H  14,C   4,N   3,C   2)    -99.65  0.000044   -0.01    -99.66   
    83. D(H  13,C   4,N   3,H  12)    148.96 -0.000012    0.02    148.99   
    84. D(C   6,C   5,C   4,H  14)   -131.11 -0.000036   -0.01   -131.12   
    85. D(C   6,C   5,C   4,H  13)     95.60 -0.000009   -0.03     95.57   
    86. D(C   6,C   5,C   4,N   3)    -14.51  0.000004   -0.03    -14.54   
    87. D(H  16,C   5,C   4,H  14)    110.63 -0.000010   -0.02    110.60   
    88. D(H  16,C   5,C   4,H  13)    -22.67  0.000018   -0.04    -22.71   
    89. D(H  16,C   5,C   4,N   3)   -132.78  0.000031   -0.05   -132.82   
    90. D(H  15,C   5,C   4,H  14)    -16.91  0.000004   -0.03    -16.94   
    91. D(H  15,C   5,C   4,H  13)   -150.21  0.000032   -0.05   -150.26   
    92. D(H  15,C   5,C   4,N   3)     99.69  0.000044   -0.05     99.64   
    93. D(H  18,C   6,C   5,H  15)    150.22 -0.000044    0.07    150.28   
    94. D(H  18,C   6,C   5,C   4)    -95.64 -0.000040    0.06    -95.58   
    95. D(H  17,C   6,C   5,H  16)   -110.52 -0.000001    0.04   -110.48   
    96. D(H  17,C   6,C   5,H  15)     17.04  0.000004    0.03     17.08   
    97. D(H  17,C   6,C   5,C   4)    131.19  0.000009    0.02    131.21   
    98. D(N   3,C   6,C   5,H  16)    132.80 -0.000017    0.05    132.84   
    99. D(N   3,C   6,C   5,H  15)    -99.64 -0.000012    0.04    -99.60   
   100. D(N   3,C   6,C   5,C   4)     14.50 -0.000007    0.03     14.54   
   101. D(H  18,C   6,N   3,H  12)   -148.39  0.000018   -0.04   -148.43   
   102. D(H  18,C   6,N   3,C   4)    100.93 -0.000032   -0.02    100.91   
   103. D(H  18,C   6,N   3,C   2)    -22.69  0.000014   -0.03    -22.72   
   104. D(H  17,C   6,N   3,H  12)    -26.21  0.000015   -0.04    -26.24   
   105. D(H  17,C   6,N   3,C   4)   -136.88 -0.000035   -0.02   -136.91   
   106. D(H  17,C   6,N   3,C   2)     99.49  0.000011   -0.03     99.46   
   107. D(C   5,C   6,N   3,H  12)     96.02  0.000055   -0.05     95.97   
   108. D(C   5,C   6,N   3,C   4)    -14.66  0.000005   -0.03    -14.69   
   109. D(H  18,C   6,C   5,H  16)     22.66 -0.000050    0.07     22.72   
   110. D(C   5,C   6,N   3,C   2)   -138.28  0.000051   -0.04   -138.32   
    ----------------------------------------------------------------------------

         *************************************************************
         *                GEOMETRY OPTIMIZATION CYCLE   2            *
         *************************************************************
---------------------------------
CARTESIAN COORDINATES (ANGSTROEM)
---------------------------------
  C      1.682176   -0.001062   -2.365671
  C      1.750427    0.098977   -1.046309
  C      0.777057    0.885793   -0.238760
  N      0.000238    0.000426    0.677090
  C     -1.100740    0.594891    1.532624
  C     -1.986650   -0.616840    1.225203
  C     -1.012770   -0.964743    0.093201
  H      2.423194   -0.557663   -2.926349
  H      0.899701    0.487217   -2.938279
  H      2.565964   -0.375820   -0.504692
  H      0.051691    1.402147   -0.869621
  H      1.272907    1.624616    0.398333
  H      0.656521   -0.512620    1.265744
  H     -1.435309    1.520906    1.066791
  H     -0.788920    0.782506    2.557975
  H     -1.991992   -1.355031    2.025828
  H     -3.009837   -0.401736    0.929479
  H     -0.634474   -1.980454    0.006240
  H     -1.313876   -0.595658   -0.886030

----------------------------
CARTESIAN COORDINATES (A.U.)
----------------------------
  NO LB      ZA    FRAG    MASS        X           Y           Z
   0 C     6.0000    0    12.011          3.178851941458770         -0.002007270656813         -4.470469637569357
   1 C     6.0000    0    12.011          3.307827222849673          0.187040159763767         -1.977237101905443
   2 C     6.0000    0    12.011          1.468425566659804          1.673905286360874         -0.451191802013942
   3 N     7.0000    0    14.007          0.000450175779438          0.000804935318869          1.279514504474739
   4 C     6.0000    0    12.011         -2.080097059036611          1.124181645545199          2.896240323131734
   5 C     6.0000    0    12.011         -3.754224810317872         -1.165658244380368          2.315298467298164
   6 C     6.0000    0    12.011         -1.913857442160894         -1.823099175293922          0.176125259016073
   7 H     1.0000    0     1.008          4.579172733863182         -1.053830087689924         -5.529998781036666
   8 H     1.0000    0     1.008          1.700188043018055          0.920706115697352         -5.552541672008682
   9 H     1.0000    0     1.008          4.848968343101647         -0.710197421198454         -0.953729580378277
  10 H     1.0000    0     1.008          0.097682538437926          2.649673796081243         -1.643345642635322
  11 H     1.0000    0     1.008          2.405445879138925          3.070078836465105          0.752739798031983
  12 H     1.0000    0     1.008          1.240645172067104         -0.968712140644810          2.391909250417533
  13 H     1.0000    0     1.008         -2.712340029391218          2.874096721710888          2.015942770039632
  14 H     1.0000    0     1.008         -1.490842316185685          1.478722196091981          4.833871918769253
  15 H     1.0000    0     1.008         -3.764319816883645         -2.560637102629553          3.828260291576441
  16 H     1.0000    0     1.008         -5.687767606057528         -0.759170882092831          1.756460495436791
  17 H     1.0000    0     1.008         -1.198982417064727         -3.742515439575365          0.011792472596234
  18 H     1.0000    0     1.008         -2.482866202093656         -1.125630027369399         -1.674353603600826

--------------------------------
INTERNAL COORDINATES (ANGSTROEM)
--------------------------------
 C      0   0   0   0.000000     0.000     0.000
 C      1   0   0   1.324908     0.000     0.000
 C      2   1   0   1.489517   123.100     0.000
 N      3   2   1   1.492013   111.074   116.049
 C      4   3   2   1.515744   119.467   183.421
 C      5   4   3   1.532200    89.803   138.182
 C      4   3   2   1.516134   119.290   290.451
 H      1   2   3   1.083177   121.266   178.180
 H      1   2   3   1.085617   121.898   359.677
 H      2   1   3   1.088063   120.090   182.319
 H      3   2   1   1.091221   111.772   356.835
 H      3   2   1   1.094356   112.096   234.692
 H      4   3   2   1.020018   108.525    56.564
 H      5   4   3   1.089239   108.369    22.731
 H      5   4   3   1.088014   113.040   260.342
 H      6   5   4   1.089016   113.042    99.635
 H      6   5   4   1.086570   116.264   227.179
 H      7   4   3   1.087354   113.141    99.460
 H      7   4   3   1.088936   108.379   337.275

---------------------------
INTERNAL COORDINATES (A.U.)
---------------------------
 C      0   0   0   0.000000     0.000     0.000
 C      1   0   0   2.503714     0.000     0.000
 C      2   1   0   2.814779   123.100     0.000
 N      3   2   1   2.819497   111.074   116.049
 C      4   3   2   2.864342   119.467   183.421
 C      5   4   3   2.895438    89.803   138.182
 C      4   3   2   2.865077   119.290   290.451
 H      1   2   3   2.046908   121.266   178.180
 H      1   2   3   2.051518   121.898   359.677
 H      2   1   3   2.056142   120.090   182.319
 H      3   2   1   2.062108   111.772   356.835
 H      3   2   1   2.068033   112.096   234.692
 H      4   3   2   1.927555   108.525    56.564
 H      5   4   3   2.058363   108.369    22.731
 H      5   4   3   2.056049   113.040   260.342
 H      6   5   4   2.057941   113.042    99.635
 H      6   5   4   2.053319   116.264   227.179
 H      7   4   3   2.054802   113.141    99.460
 H      7   4   3   2.057792   108.379   337.275



           ************************************************************
           *        Program running with 8 parallel MPI-processes     *
           *              working on a common directory               *
           ************************************************************
           ************************************************************
           *              Shut down parallel processing               *
           ************************************************************


           ************************************************************
           *        Program running with 8 parallel MPI-processes     *
           *              working on a common directory               *
           ************************************************************

Diagonalization of the overlap matrix:
Smallest eigenvalue                        ... 1.483e-04
Time for diagonalization                   ...    0.180 sec
Threshold for overlap eigenvalues          ... 1.000e-08
Number of eigenvalues below threshold      ... 0
Time for construction of square roots      ...    0.029 sec
Total time needed                          ...    0.209 sec

-------------------
DFT GRID GENERATION
-------------------

General Integration Accuracy     IntAcc      ...  4.340
Radial Grid Type                 RadialGrid  ... Gauss-Chebyshev
Angular Grid (max. acc.)         AngularGrid ... Lebedev-194
Angular grid pruning method      GridPruning ... 3 (G Style)
Weight generation scheme         WeightScheme... Becke
Basis function cutoff            BFCut       ...    1.0000e-11
Integration weight cutoff        WCut        ...    1.0000e-14
Grids for H and He will be reduced by one unit

# of grid points (after initial pruning)     ...  41338 (   0.0 sec)
# of grid points (after weights+screening)   ...  37706 (   0.2 sec)
nearest neighbour list constructed           ...    0.0 sec
Grid point re-assignment to atoms done       ...    0.0 sec
Grid point division into batches done        ...    0.1 sec
Reduced shell lists constructed in    0.2 sec

Total number of grid points                  ...    37706
Total number of batches                      ...      600
Average number of points per batch           ...       62
Average number of grid points per atom       ...     1985
Average number of shells per batch           ...    92.53 (74.02%)
Average number of basis functions per batch  ...   218.97 (75.77%)
Average number of large shells per batch     ...    73.72 (79.68%)
Average number of large basis fcns per batch ...   172.57 (78.81%)
Maximum spatial batch extension              ...   6.07,  7.69,  2.66 au
Average spatial batch extension              ...   0.18,  0.19,  0.17 au

Time for grid setup =    0.566 sec

--------------
SCF ITERATIONS
--------------
ITER       Energy         Delta-E        Max-DP      RMS-DP      [F,P]     Damp
               ***  Starting incremental Fock matrix formation  ***
                      *** Initiating the SOSCF procedure ***
                      *** Re-Reading the Fockian *** 
                      *** Removing any level shift *** 
ITER      Energy       Delta-E        Grad      Rot      Max-DP    RMS-DP
  0   -290.07616608 -290.0761660842  0.000249  0.000249  0.000289  0.000007
               *** Restarting incremental Fock matrix formation ***
  1   -290.07616898  -0.0000028980  0.000097  0.000242  0.000110  0.000003
  2   -290.07616936  -0.0000003800  0.000017  0.000066  0.000043  0.000001
  3   -290.07616935   0.0000000107  0.000038  0.000051  0.000027  0.000001
  4   -290.07616938  -0.0000000325  0.000006  0.000017  0.000010  0.000000
  5   -290.07616938   0.0000000004  0.000006  0.000009  0.000005  0.000000
                  ***Gradient check signals convergence***
              ***Rediagonalizing the Fockian in SOSCF/NRSCF***

               *****************************************************
               *                     SUCCESS                       *
               *           SCF CONVERGED AFTER   6 CYCLES          *
               *****************************************************

Setting up the final grid:

General Integration Accuracy     IntAcc      ...  5.010
Radial Grid Type                 RadialGrid  ... Gauss-Chebyshev
Angular Grid (max. acc.)         AngularGrid ... Lebedev-434
Angular grid pruning method      GridPruning ... 3 (G Style)
Weight generation scheme         WeightScheme... Becke
Basis function cutoff            BFCut       ...    1.0000e-11
Integration weight cutoff        WCut        ...    1.0000e-14
Grids for H and He will be reduced by one unit

# of grid points (after initial pruning)     ... 155082 (   0.0 sec)
# of grid points (after weights+screening)   ... 139776 (   2.4 sec)
nearest neighbour list constructed           ...    0.0 sec
Grid point re-assignment to atoms done       ...    0.0 sec
Grid point division into batches done        ...    0.9 sec
Reduced shell lists constructed in    1.2 sec

Total number of grid points                  ...   139776
Total number of batches                      ...     2192
Average number of points per batch           ...       63
Average number of grid points per atom       ...     7357
Average number of shells per batch           ...    92.08 (73.66%)
Average number of basis functions per batch  ...   218.21 (75.50%)
Average number of large shells per batch     ...    73.02 (79.31%)
Average number of large basis fcns per batch ...   171.81 (78.74%)
Maximum spatial batch extension              ...   4.06,  5.14,  3.13 au
Average spatial batch extension              ...   0.11,  0.11,  0.11 au

Final grid set up in    4.4 sec
Final integration                            ... done (   1.1 sec)
Change in XC energy                          ...     0.000524810
Integrated number of electrons               ...    54.000016644
Previous integrated no of electrons          ...    54.001010161
Total Energy       :         -290.07564457 Eh           -7893.35958 eV
  Last Energy change         ...   -1.0618e-09  Tolerance :   1.0000e-08
  Last MAX-Density change    ...    8.5527e-07  Tolerance :   1.0000e-07
             **** THE GBW FILE WAS UPDATED (2338_+.gbw) ****
             **** DENSITY FILE WAS UPDATED (2338_+.scfp.tmp) ****
             **** ENERGY FILE WAS UPDATED (2338_+.en.tmp) ****
Total SCF time: 0 days 0 hours 0 min 52 sec 
           ************************************************************
           *              Shut down parallel processing               *
           ************************************************************

-------------------------   --------------------
FINAL SINGLE POINT ENERGY      -290.075644574419
-------------------------   --------------------



           ************************************************************
           *        Program running with 8 parallel MPI-processes     *
           *              working on a common directory               *
           ************************************************************
------------------------------------------------------------------------------
                         ORCA SCF GRADIENT CALCULATION
------------------------------------------------------------------------------

Gradient of the Kohn-Sham DFT energy:
Kohn-Sham wavefunction type      ... RKS
Hartree-Fock exchange scaling    ...    0.250
Number of operators              ...    1
Number of atoms                  ...   19
Basis set dimensions             ...  289
Integral neglect threshold       ... 2.5e-11
Integral primitive cutoff        ... 2.5e-12

Nuclear repulsion gradient       ... done
One Electron Gradient            ... done
Pre-screening matrix             ... done
Starting the two electron gradient:
Two electron gradient done
Exchange-correlation gradient    ... done

------------------
CARTESIAN GRADIENT
------------------

   1   C   :    0.000064184    0.000005991    0.000024119
   2   C   :   -0.000007287    0.000000495   -0.000103511
   3   C   :   -0.000127737   -0.000034548    0.000094345
   4   N   :   -0.000027274   -0.000002913   -0.000014516
   5   C   :    0.000064774   -0.000045428   -0.000057122
   6   C   :    0.000052869   -0.000040656    0.000083246
   7   C   :    0.000036846    0.000083667    0.000023944
   8   H   :    0.000007733   -0.000005444    0.000017073
   9   H   :   -0.000008202    0.000006805    0.000024403
  10   H   :   -0.000017948   -0.000028578    0.000023090
  11   H   :    0.000016390    0.000014179    0.000010430
  12   H   :    0.000010611    0.000027564   -0.000016416
  13   H   :    0.000044412   -0.000006896   -0.000048241
  14   H   :   -0.000004992    0.000019718    0.000010602
  15   H   :   -0.000014683    0.000018172    0.000003861
  16   H   :   -0.000071111    0.000010153   -0.000005028
  17   H   :    0.000006128    0.000027199   -0.000030066
  18   H   :    0.000003756    0.000003581   -0.000018629
  19   H   :   -0.000028469   -0.000053061   -0.000021582

Norm of the cartesian gradient     ...    0.000306528
RMS gradient                       ...    0.000040601
MAX gradient                       ...    0.000127737

-------
TIMINGS
-------

Total SCF gradient time            ...       38.883 sec

One electron gradient       ....       0.157 sec  (  0.4%)
Prescreening matrices       ....       0.528 sec  (  1.4%)
Two electron gradient       ....      24.372 sec  ( 62.7%)
XC gradient                 ....       3.333 sec  (  8.6%)
           ************************************************************
           *              Shut down parallel processing               *
           ************************************************************
------------------------------------------------------------------------------
                         ORCA GEOMETRY RELAXATION STEP
------------------------------------------------------------------------------

Reading the OPT-File                    .... done
Getting information on internals        .... done
Copying old internal coords+grads       .... done
Making the new internal coordinates     .... (new redundants).... done
Validating the new internal coordinates .... (new redundants).... done
Calculating the B-matrix                .... done
Calculating the G,G- and P matrices     .... done
Transforming gradient to internals      .... done
Projecting the internal gradient        .... done
Number of atoms                         ....  19
Number of internal coordinates          .... 110
Current Energy                          ....  -290.075644574 Eh
Current gradient norm                   ....     0.000306528 Eh/bohr
Maximum allowed component of the step   ....  0.300
Current trust radius                    ....  0.300
Updating the Hessian (BFGS)             .... done
Forming the augmented Hessian           .... done
Diagonalizing the augmented Hessian     .... done
Last element of RFO vector              ....  0.999940790
Lowest eigenvalues of augmented Hessian:
 -0.000001251  0.008208496  0.012523233  0.013631982  0.027045604
Length of the computed step             ....  0.010882598
The final length of the internal step   ....  0.010882598
Converting the step to cartesian space:
 Initial RMS(Int)=    0.0010376150
Transforming coordinates:
 Iter   0:  RMS(Cart)=    0.0025889764 RMS(Int)=    0.0010376063
 Iter   1:  RMS(Cart)=    0.0000030132 RMS(Int)=    0.0000013382
 Iter   2:  RMS(Cart)=    0.0000000076 RMS(Int)=    0.0000000025
done
Storing new coordinates                 .... done

                                .--------------------.
          ----------------------|Geometry convergence|---------------------
          Item                value                 Tolerance   Converged
          -----------------------------------------------------------------
          Energy change      -0.00000144            0.00000100      NO
          RMS gradient        0.00002213            0.00003000      YES
          MAX gradient        0.00008132            0.00010000      YES
          RMS step            0.00103762            0.00060000      NO
          MAX step            0.00369435            0.00100000      NO
          ....................................................
          Max(Bonds)      0.0003      Max(Angles)    0.03
          Max(Dihed)        0.21      Max(Improp)    0.00
          -----------------------------------------------------------------

The optimization has not yet converged - more geometry cycles are needed


    ---------------------------------------------------------------------------
                         Redundant Internal Coordinates
                            (Angstroem and degrees)

        Definition                    Value    dE/dq     Step     New-Value
    ----------------------------------------------------------------------------
     1. B(C   1,C   0)                1.3249 -0.000066  0.0001    1.3250   
     2. B(C   2,C   1)                1.4895  0.000042 -0.0001    1.4894   
     3. B(N   3,C   2)                1.4920 -0.000081  0.0003    1.4923   
     4. B(C   4,N   3)                1.5157 -0.000041  0.0002    1.5159   
     5. B(C   5,C   4)                1.5322 -0.000013  0.0000    1.5322   
     6. B(C   6,C   5)                1.5333  0.000018 -0.0001    1.5332   
     7. B(C   6,N   3)                1.5161 -0.000017  0.0001    1.5162   
     8. B(H   7,C   0)                1.0832 -0.000001 -0.0000    1.0831   
     9. B(H   8,C   0)                1.0856 -0.000002  0.0000    1.0857   
    10. B(H   9,C   1)                1.0881  0.000009  0.0000    1.0881   
    11. B(H  10,C   2)                1.0912 -0.000008  0.0001    1.0913   
    12. B(H  11,C   2)                1.0944  0.000013 -0.0000    1.0943   
    13. B(H  12,N   3)                1.0200  0.000004 -0.0000    1.0200   
    14. B(H  13,C   4)                1.0892  0.000014 -0.0002    1.0891   
    15. B(H  14,C   4)                1.0880  0.000003 -0.0001    1.0880   
    16. B(H  15,C   5)                1.0890 -0.000008  0.0001    1.0891   
    17. B(H  16,C   5)                1.0866  0.000006 -0.0001    1.0865   
    18. B(H  17,C   6)                1.0874  0.000001  0.0000    1.0874   
    19. B(H  18,C   6)                1.0889  0.000007 -0.0001    1.0889   
    20. A(H   7,C   0,H   8)          116.82  0.000030   -0.01    116.81   
    21. A(C   1,C   0,H   8)          121.90 -0.000023    0.01    121.91   
    22. A(C   1,C   0,H   7)          121.27 -0.000006    0.00    121.27   
    23. A(C   0,C   1,H   9)          120.09 -0.000020    0.01    120.10   
    24. A(C   0,C   1,C   2)          123.10  0.000072   -0.02    123.08   
    25. A(C   2,C   1,H   9)          116.77 -0.000052    0.02    116.79   
    26. A(N   3,C   2,H  10)          106.83  0.000036   -0.03    106.80   
    27. A(N   3,C   2,H  11)          106.21  0.000011    0.01    106.22   
    28. A(H  10,C   2,H  11)          108.56 -0.000018    0.01    108.57   
    29. A(C   1,C   2,H  11)          112.10 -0.000012    0.02    112.12   
    30. A(C   1,C   2,N   3)          111.07 -0.000035    0.01    111.08   
    31. A(C   1,C   2,H  10)          111.77  0.000021   -0.02    111.75   
    32. A(C   4,N   3,C   6)           88.95  0.000005   -0.01     88.94   
    33. A(C   2,N   3,C   4)          119.47 -0.000033    0.02    119.49   
    34. A(C   6,N   3,H  12)          109.39  0.000001    0.00    109.39   
    35. A(C   4,N   3,H  12)          109.81  0.000031   -0.02    109.79   
    36. A(C   2,N   3,H  12)          108.53 -0.000022    0.02    108.55   
    37. A(C   2,N   3,C   6)          119.29  0.000026   -0.03    119.26   
    38. A(H  13,C   4,H  14)          110.15 -0.000008    0.01    110.16   
    39. A(C   5,C   4,H  14)          119.42 -0.000013   -0.00    119.41   
    40. A(N   3,C   4,H  14)          113.04  0.000014   -0.02    113.02   
    41. A(C   5,C   4,H  13)          114.14  0.000008    0.01    114.15   
    42. A(N   3,C   4,H  13)          108.37 -0.000011    0.01    108.37   
    43. A(N   3,C   4,C   5)           89.80  0.000015   -0.01     89.79   
    44. A(C   6,C   5,H  16)          116.24 -0.000015    0.02    116.26   
    45. A(C   4,C   5,H  16)          116.26 -0.000001    0.02    116.28   
    46. A(C   6,C   5,H  15)          113.08  0.000034   -0.03    113.06   
    47. A(C   4,C   5,C   6)           87.73 -0.000017    0.00     87.73   
    48. A(C   4,C   5,H  15)          113.04  0.000016   -0.02    113.02   
    49. A(H  15,C   5,H  16)          109.25 -0.000014    0.01    109.26   
    50. A(H  17,C   6,H  18)          109.93 -0.000019    0.02    109.95   
    51. A(C   5,C   6,H  18)          114.29 -0.000013    0.01    114.30   
    52. A(N   3,C   6,H  18)          108.38  0.000022   -0.03    108.35   
    53. A(C   5,C   6,H  17)          119.47  0.000018   -0.01    119.46   
    54. A(N   3,C   6,H  17)          113.14  0.000003   -0.00    113.14   
    55. A(N   3,C   6,C   5)           89.75 -0.000004   -0.01     89.74   
    56. D(H   9,C   1,C   0,H   8)   -178.00 -0.000002   -0.01   -178.01   
    57. D(C   2,C   1,C   0,H   7)    178.18  0.000001   -0.00    178.18   
    58. D(H   9,C   1,C   0,H   7)      0.50  0.000002   -0.01      0.49   
    59. D(C   2,C   1,C   0,H   8)     -0.32 -0.000004   -0.00     -0.32   
    60. D(H  11,C   2,C   1,C   0)   -125.31  0.000022   -0.18   -125.49   
    61. D(N   3,C   2,C   1,C   0)    116.05  0.000039   -0.21    115.84   
    62. D(H  10,C   2,C   1,C   0)     -3.16  0.000004   -0.17     -3.33   
    63. D(H  10,C   2,C   1,H   9)    174.59  0.000003   -0.16    174.43   
    64. D(H  11,C   2,C   1,H   9)     52.44  0.000021   -0.18     52.27   
    65. D(N   3,C   2,C   1,H   9)    -66.20  0.000038   -0.21    -66.40   
    66. D(C   6,N   3,C   2,C   1)    -69.55 -0.000027    0.09    -69.46   
    67. D(C   4,N   3,C   2,H  11)     61.29 -0.000000    0.07     61.36   
    68. D(C   4,N   3,C   2,C   1)   -176.58 -0.000029    0.11   -176.47   
    69. D(C   6,N   3,C   2,H  10)     52.58  0.000000    0.05     52.63   
    70. D(H  12,N   3,C   2,H  10)    178.70  0.000003    0.05    178.75   
    71. D(C   4,N   3,C   2,H  10)    -54.45 -0.000001    0.07    -54.38   
    72. D(H  12,N   3,C   2,C   1)     56.56 -0.000025    0.09     56.66   
    73. D(H  12,N   3,C   2,H  11)    -65.57  0.000004    0.06    -65.51   
    74. D(C   6,N   3,C   2,H  11)    168.32  0.000001    0.06    168.38   
    75. D(H  14,C   4,N   3,H  12)     26.60 -0.000004    0.03     26.63   
    76. D(H  14,C   4,N   3,C   6)    136.86  0.000003    0.03    136.89   
    77. D(H  13,C   4,N   3,C   6)   -100.75 -0.000006    0.04   -100.71   
    78. D(H  13,C   4,N   3,C   2)     22.73  0.000017    0.01     22.74   
    79. D(C   5,C   4,N   3,H  12)    -95.56  0.000000    0.05    -95.51   
    80. D(C   5,C   4,N   3,C   6)     14.70  0.000007    0.05     14.75   
    81. D(C   5,C   4,N   3,C   2)    138.18  0.000029    0.01    138.20   
    82. D(H  14,C   4,N   3,C   2)    -99.66  0.000026    0.00    -99.66   
    83. D(H  13,C   4,N   3,H  12)    148.99 -0.000013    0.04    149.03   
    84. D(C   6,C   5,C   4,H  14)   -131.12 -0.000025   -0.02   -131.14   
    85. D(C   6,C   5,C   4,H  13)     95.57 -0.000008   -0.05     95.52   
    86. D(C   6,C   5,C   4,N   3)    -14.54 -0.000003   -0.05    -14.59   
    87. D(H  16,C   5,C   4,H  14)    110.60  0.000000   -0.05    110.56   
    88. D(H  16,C   5,C   4,H  13)    -22.71  0.000018   -0.07    -22.79   
    89. D(H  16,C   5,C   4,N   3)   -132.82  0.000022   -0.07   -132.89   
    90. D(H  15,C   5,C   4,H  14)    -16.94  0.000006   -0.05    -16.99   
    91. D(H  15,C   5,C   4,H  13)   -150.26  0.000024   -0.08   -150.34   
    92. D(H  15,C   5,C   4,N   3)     99.64  0.000028   -0.08     99.55   
    93. D(H  18,C   6,C   5,H  15)    150.28 -0.000034    0.10    150.39   
    94. D(H  18,C   6,C   5,C   4)    -95.58 -0.000019    0.08    -95.50   
    95. D(H  17,C   6,C   5,H  16)   -110.48 -0.000007    0.07   -110.42   
    96. D(H  17,C   6,C   5,H  15)     17.08 -0.000008    0.07     17.14   
    97. D(H  17,C   6,C   5,C   4)    131.21  0.000007    0.04    131.25   
    98. D(N   3,C   6,C   5,H  16)    132.84 -0.000012    0.07    132.91   
    99. D(N   3,C   6,C   5,H  15)    -99.60 -0.000013    0.07    -99.53   
   100. D(N   3,C   6,C   5,C   4)     14.54  0.000001    0.05     14.59   
   101. D(H  18,C   6,N   3,H  12)   -148.43  0.000019   -0.06   -148.49   
   102. D(H  18,C   6,N   3,C   4)    100.91 -0.000015   -0.04    100.87   
   103. D(H  18,C   6,N   3,C   2)    -22.72  0.000012   -0.06    -22.78   
   104. D(H  17,C   6,N   3,H  12)    -26.24  0.000013   -0.06    -26.30   
   105. D(H  17,C   6,N   3,C   4)   -136.91 -0.000022   -0.04   -136.94   
   106. D(H  17,C   6,N   3,C   2)     99.46  0.000005   -0.05     99.41   
   107. D(C   5,C   6,N   3,H  12)     95.97  0.000031   -0.07     95.90   
   108. D(C   5,C   6,N   3,C   4)    -14.69 -0.000004   -0.05    -14.74   
   109. D(H  18,C   6,C   5,H  16)     22.72 -0.000033    0.10     22.83   
   110. D(C   5,C   6,N   3,C   2)   -138.32  0.000023   -0.06   -138.38   
    ----------------------------------------------------------------------------

         *************************************************************
         *                GEOMETRY OPTIMIZATION CYCLE   3            *
         *************************************************************
---------------------------------
CARTESIAN COORDINATES (ANGSTROEM)
---------------------------------
  C      1.679831   -0.002643   -2.364984
  C      1.751018    0.099224   -1.045784
  C      0.778574    0.886287   -0.237598
  N      0.000588    0.000991    0.677768
  C     -1.101567    0.595173    1.532273
  C     -1.986417   -0.617170    1.223981
  C     -1.011924   -0.963844    0.092259
  H      2.420039   -0.559254   -2.926642
  H      0.895621    0.484091   -2.936617
  H      2.568156   -0.374151   -0.505284
  H      0.053372    1.403159   -0.868338
  H      1.274818    1.624519    0.399849
  H      0.655927   -0.512266    1.267263
  H     -1.436062    1.520871    1.066184
  H     -0.790606    0.782731    2.557835
  H     -1.990808   -1.355833    2.024284
  H     -3.009757   -0.403079    0.928359
  H     -0.633433   -1.979438    0.004715
  H     -1.312064   -0.593516   -0.886725

----------------------------
CARTESIAN COORDINATES (A.U.)
----------------------------
  NO LB      ZA    FRAG    MASS        X           Y           Z
   0 C     6.0000    0    12.011          3.174420954836596         -0.004995441730352         -4.469171275119185
   1 C     6.0000    0    12.011          3.308945136952871          0.187505919385792         -1.976245989085980
   2 C     6.0000    0    12.011          1.471291234505881          1.674839505372891         -0.448994391952915
   3 N     7.0000    0    14.007          0.001110370029752          0.001873526920277          1.280796152510988
   4 C     6.0000    0    12.011         -2.081659212547317          1.124713837258711          2.895575962404645
   5 C     6.0000    0    12.011         -3.753784417646931         -1.166282456158823          2.312988668602111
   6 C     6.0000    0    12.011         -1.912258395282736         -1.821400822371563          0.174343596218567
   7 H     1.0000    0     1.008          4.573210827569852         -1.056836617798151         -5.530550990512326
   8 H     1.0000    0     1.008          1.692477668922991          0.914799397027879         -5.549401456916387
   9 H     1.0000    0     1.008          4.853111936533560         -0.707042973455947         -0.954848663942105
  10 H     1.0000    0     1.008          0.100859301024231          2.651585484109849         -1.640920357178848
  11 H     1.0000    0     1.008          2.409057185520561          3.069896160702983          0.755605011404822
  12 H     1.0000    0     1.008          1.239523302118636         -0.968042450645130          2.394779973197611
  13 H     1.0000    0     1.008         -2.713763248526941          2.874030332968146          2.014795593315352
  14 H     1.0000    0     1.008         -1.494028345714482          1.479147834505280          4.833608213907081
  15 H     1.0000    0     1.008         -3.762082760745487         -2.562152999703251          3.825342145600524
  16 H     1.0000    0     1.008         -5.687615991833309         -0.761708084224364          1.754343329745957
  17 H     1.0000    0     1.008         -1.197014083298321         -3.740595284397609          0.008909371467471
  18 H     1.0000    0     1.008         -2.479441545236719         -1.121582966262779         -1.675667164027324

--------------------------------
INTERNAL COORDINATES (ANGSTROEM)
--------------------------------
 C      0   0   0   0.000000     0.000     0.000
 C      1   0   0   1.325040     0.000     0.000
 C      2   1   0   1.489390   123.078     0.000
 N      3   2   1   1.492282   111.084   115.838
 C      4   3   2   1.515907   119.491   183.529
 C      5   4   3   1.532247    89.789   138.197
 C      4   3   2   1.516215   119.261   290.543
 H      1   2   3   1.083135   121.269   178.179
 H      1   2   3   1.085662   121.907   359.676
 H      2   1   3   1.088089   120.096   182.313
 H      3   2   1   1.091287   111.750   356.670
 H      3   2   1   1.094342   112.116   234.511
 H      4   3   2   1.020004   108.546    56.657
 H      5   4   3   1.089056   108.375    22.741
 H      5   4   3   1.087958   113.025   260.342
 H      6   5   4   1.089095   113.024    99.553
 H      6   5   4   1.086486   116.280   227.106
 H      7   4   3   1.087359   113.141    99.409
 H      7   4   3   1.088869   108.351   337.220

---------------------------
INTERNAL COORDINATES (A.U.)
---------------------------
 C      0   0   0   0.000000     0.000     0.000
 C      1   0   0   2.503963     0.000     0.000
 C      2   1   0   2.814539   123.078     0.000
 N      3   2   1   2.820004   111.084   115.838
 C      4   3   2   2.864649   119.491   183.529
 C      5   4   3   2.895527    89.789   138.197
 C      4   3   2   2.865231   119.261   290.543
 H      1   2   3   2.046829   121.269   178.179
 H      1   2   3   2.051603   121.907   359.676
 H      2   1   3   2.056191   120.096   182.313
 H      3   2   1   2.062233   111.750   356.670
 H      3   2   1   2.068006   112.116   234.511
 H      4   3   2   1.927528   108.546    56.657
 H      5   4   3   2.058018   108.375    22.741
 H      5   4   3   2.055943   113.025   260.342
 H      6   5   4   2.058090   113.024    99.553
 H      6   5   4   2.053161   116.280   227.106
 H      7   4   3   2.054811   113.141    99.409
 H      7   4   3   2.057664   108.351   337.220



           ************************************************************
           *        Program running with 8 parallel MPI-processes     *
           *              working on a common directory               *
           ************************************************************
           ************************************************************
           *              Shut down parallel processing               *
           ************************************************************


           ************************************************************
           *        Program running with 8 parallel MPI-processes     *
           *              working on a common directory               *
           ************************************************************

Diagonalization of the overlap matrix:
Smallest eigenvalue                        ... 1.485e-04
Time for diagonalization                   ...    0.195 sec
Threshold for overlap eigenvalues          ... 1.000e-08
Number of eigenvalues below threshold      ... 0
Time for construction of square roots      ...    0.059 sec
Total time needed                          ...    0.254 sec

-------------------
DFT GRID GENERATION
-------------------

General Integration Accuracy     IntAcc      ...  4.340
Radial Grid Type                 RadialGrid  ... Gauss-Chebyshev
Angular Grid (max. acc.)         AngularGrid ... Lebedev-194
Angular grid pruning method      GridPruning ... 3 (G Style)
Weight generation scheme         WeightScheme... Becke
Basis function cutoff            BFCut       ...    1.0000e-11
Integration weight cutoff        WCut        ...    1.0000e-14
Grids for H and He will be reduced by one unit

# of grid points (after initial pruning)     ...  41338 (   0.0 sec)
# of grid points (after weights+screening)   ...  37702 (   0.1 sec)
nearest neighbour list constructed           ...    0.0 sec
Grid point re-assignment to atoms done       ...    0.0 sec
Grid point division into batches done        ...    0.1 sec
Reduced shell lists constructed in    0.2 sec

Total number of grid points                  ...    37702
Total number of batches                      ...      600
Average number of points per batch           ...       62
Average number of grid points per atom       ...     1984
Average number of shells per batch           ...    92.37 (73.89%)
Average number of basis functions per batch  ...   218.47 (75.60%)
Average number of large shells per batch     ...    73.63 (79.72%)
Average number of large basis fcns per batch ...   172.29 (78.86%)
Maximum spatial batch extension              ...   6.07,  7.69,  2.66 au
Average spatial batch extension              ...   0.18,  0.19,  0.17 au

Time for grid setup =    0.742 sec

--------------
SCF ITERATIONS
--------------
ITER       Energy         Delta-E        Max-DP      RMS-DP      [F,P]     Damp
               ***  Starting incremental Fock matrix formation  ***
                      *** Initiating the SOSCF procedure ***
                      *** Re-Reading the Fockian *** 
                      *** Removing any level shift *** 
ITER      Energy       Delta-E        Grad      Rot      Max-DP    RMS-DP
  0   -290.07616553 -290.0761655263  0.000352  0.000352  0.000427  0.000009
               *** Restarting incremental Fock matrix formation ***
  1   -290.07617108  -0.0000055494  0.000132  0.000330  0.000153  0.000004
  2   -290.07617181  -0.0000007339  0.000023  0.000080  0.000041  0.000001
  3   -290.07617181  -0.0000000034  0.000036  0.000055  0.000027  0.000001
  4   -290.07617184  -0.0000000231  0.000008  0.000018  0.000009  0.000000
  5   -290.07617184  -0.0000000005  0.000004  0.000007  0.000005  0.000000
                  ***Gradient check signals convergence***
              ***Rediagonalizing the Fockian in SOSCF/NRSCF***

               *****************************************************
               *                     SUCCESS                       *
               *           SCF CONVERGED AFTER   6 CYCLES          *
               *****************************************************

Setting up the final grid:

General Integration Accuracy     IntAcc      ...  5.010
Radial Grid Type                 RadialGrid  ... Gauss-Chebyshev
Angular Grid (max. acc.)         AngularGrid ... Lebedev-434
Angular grid pruning method      GridPruning ... 3 (G Style)
Weight generation scheme         WeightScheme... Becke
Basis function cutoff            BFCut       ...    1.0000e-11
Integration weight cutoff        WCut        ...    1.0000e-14
Grids for H and He will be reduced by one unit

# of grid points (after initial pruning)     ... 155082 (   0.0 sec)
# of grid points (after weights+screening)   ... 139772 (   0.9 sec)
nearest neighbour list constructed           ...    0.0 sec
Grid point re-assignment to atoms done       ...    0.0 sec
Grid point division into batches done        ...    0.9 sec
Reduced shell lists constructed in    1.2 sec

Total number of grid points                  ...   139772
Total number of batches                      ...     2192
Average number of points per batch           ...       63
Average number of grid points per atom       ...     7356
Average number of shells per batch           ...    92.00 (73.60%)
Average number of basis functions per batch  ...   217.96 (75.42%)
Average number of large shells per batch     ...    73.01 (79.36%)
Average number of large basis fcns per batch ...   171.75 (78.80%)
Maximum spatial batch extension              ...   3.93,  5.14,  3.13 au
Average spatial batch extension              ...   0.11,  0.11,  0.11 au

Final grid set up in    2.9 sec
Final integration                            ... done (   1.1 sec)
Change in XC energy                          ...     0.000526507
Integrated number of electrons               ...    54.000015979
Previous integrated no of electrons          ...    54.001024724
[...]
     18      -0.005056  -0.003780  -0.001285  -0.000527   0.000166   0.001320
     19      -0.017237  -0.039481  -0.001271  -0.000569   0.005319   0.015933
     20      -0.026062  -0.040722  -0.000195   0.000348   0.013034   0.048365
     21       0.012683   0.002819   0.341480   0.004887  -0.000373  -0.000924
     22      -0.000581   0.003906  -0.230496  -0.002375   0.000539   0.000544
     23       0.020101   0.005535   0.167378  -0.002179   0.000337   0.000672
     24      -0.010688  -0.001064  -0.350583  -0.006643   0.000780   0.002979
     25       0.002432  -0.001886   0.251431   0.003816  -0.000605  -0.001835
     26       0.016544   0.003502   0.227058  -0.002930   0.000615   0.002307
     27      -0.003709   0.004106   0.277284  -0.002152   0.003675  -0.007233
     28      -0.005892  -0.006869  -0.229905  -0.000223  -0.002058   0.004274
     29       0.001614  -0.012164  -0.215255  -0.000936   0.001976  -0.004860
     30      -0.105042  -0.053185  -0.098323   0.336447  -0.002729   0.026098
     31      -0.201892  -0.103716   0.036868  -0.227548   0.000844  -0.016663
     32      -0.066139  -0.060170   0.125538   0.298430  -0.000331   0.020757
     33       0.103303   0.050638   0.097813  -0.399681  -0.013588   0.013357
     34      -0.164184  -0.119809  -0.058582  -0.570941  -0.018329   0.020907
     35       0.129736   0.103341  -0.068824  -0.504537  -0.015189   0.016264
     36       0.018361  -0.110220  -0.030362  -0.004734  -0.001796   0.002418
     37       0.014211  -0.064106  -0.007714   0.003159   0.001888  -0.003948
     38      -0.020158   0.054483   0.021448  -0.003158  -0.003652   0.003226
     39      -0.014355  -0.016697   0.006414  -0.005068   0.236731  -0.030974
     40      -0.098786  -0.167492  -0.003871   0.018885  -0.629889   0.079007
     41      -0.212637  -0.353288  -0.013797  -0.011203   0.333145  -0.041551
     42       0.092501   0.128892   0.000655   0.004438  -0.176895   0.009206
     43      -0.211984  -0.339579  -0.007513   0.000607  -0.086553   0.003191
     44       0.016465   0.056748   0.004027   0.009024  -0.576910   0.024441
     45      -0.555475   0.421517   0.002469  -0.000084  -0.001464   0.008226
     46       0.003254   0.000985  -0.000216  -0.002847   0.065280  -0.405488
     47      -0.036111   0.029909   0.000669   0.002758  -0.073780   0.438109
     48      -0.152710   0.108129  -0.000738  -0.001486   0.026906  -0.299243
     49      -0.358354   0.272040   0.003482   0.000827  -0.005975   0.072892
     50       0.373858  -0.290189  -0.000345  -0.000780   0.011172  -0.096147
     51       0.095008   0.110348   0.006576   0.000642   0.047759   0.146314
     52       0.002651  -0.023912   0.001918  -0.000593  -0.127737  -0.384479
     53       0.273259   0.350082   0.015196   0.000265  -0.006026  -0.019082
     54      -0.031778  -0.038746   0.000476   0.000100  -0.049016  -0.170074
     55       0.275412   0.365119   0.016640   0.002201   0.061924   0.211414
     56       0.097289   0.133502   0.005430  -0.002261  -0.153871  -0.528272
                 48         49         50         51         52         53    
      0      -0.000169  -0.000570   0.009148   0.015487   0.000046  -0.000134
      1       0.000054   0.000483  -0.000908  -0.006585  -0.000065   0.000136
      2      -0.000287   0.001714   0.055049   0.041753  -0.000217   0.000201
      3       0.000583   0.018208   0.032923  -0.050637  -0.000107   0.000428
      4      -0.000349  -0.010802  -0.019651   0.028208   0.000049  -0.000281
      5       0.000419   0.011922   0.016231  -0.042026   0.000032   0.000247
      6      -0.003112  -0.064337   0.011819  -0.013679  -0.000678   0.000440
      7       0.000127   0.006914  -0.001667   0.000904   0.000265   0.000277
      8      -0.002742  -0.062473   0.012209  -0.015189  -0.000646   0.000452
      9       0.000222   0.001141  -0.000105  -0.000067   0.000087   0.000351
     10      -0.000055  -0.001135   0.000021   0.000028  -0.001283   0.000537
     11      -0.000306   0.000864  -0.000029   0.000211   0.001646   0.000743
     12      -0.000011   0.000120  -0.000025  -0.000055  -0.021561  -0.025439
     13      -0.012289   0.001848  -0.000014  -0.000030   0.018339   0.025505
     14      -0.009400   0.001598  -0.000193   0.000076  -0.052418  -0.060674
     15      -0.031917  -0.000091   0.000133  -0.000097   0.053294  -0.022988
     16      -0.027496  -0.000248   0.000015   0.000037  -0.028999   0.015540
     17       0.027020   0.000406  -0.000034  -0.000001   0.034912  -0.017618
     18      -0.000533   0.000757  -0.000421   0.000325  -0.012124   0.022692
     19       0.020257  -0.002579   0.001108  -0.000492   0.026393  -0.048715
     20       0.039114  -0.003464   0.000182   0.000236  -0.010271   0.023257
     21      -0.000575   0.025865   0.363771   0.179400  -0.001662   0.002402
     22       0.000274  -0.019724  -0.273881  -0.133977   0.001311  -0.001671
     23       0.000426  -0.017411  -0.264640  -0.128931   0.001246  -0.001751
     24       0.002381  -0.016294  -0.470856  -0.362502   0.001102  -0.000870
     25      -0.001437   0.010716   0.291747   0.223769  -0.000672   0.000301
     26       0.001835  -0.008691  -0.334481  -0.257376   0.000842  -0.000484
     27      -0.006729  -0.214246  -0.389180   0.599145   0.001378  -0.004636
     28       0.003997   0.123807   0.223202  -0.344504  -0.000774   0.002561
     29      -0.004500  -0.144261  -0.251910   0.391754   0.000561  -0.003132
     30       0.024635   0.548539  -0.111283   0.124808   0.007053  -0.002110
     31      -0.015419  -0.389731   0.078431  -0.088031  -0.006011   0.001642
     32       0.019276   0.476835  -0.091904   0.106784   0.007618  -0.000820
     33       0.010883   0.211202  -0.035917   0.045599   0.000956  -0.003047
     34       0.016801   0.320597  -0.056093   0.075050   0.001693  -0.003577
     35       0.012897   0.272390  -0.048973   0.065627   0.001354  -0.003937
     36       0.000662  -0.021262   0.003978  -0.005044  -0.009105  -0.001458
     37      -0.003357   0.009186   0.000233   0.000111   0.010154  -0.003040
     38       0.002704  -0.012431  -0.001665   0.001645  -0.013961  -0.007889
     39      -0.043109   0.007059  -0.000700   0.001105   0.111266   0.140598
     40       0.118394  -0.016560   0.000547  -0.001163  -0.305438  -0.394068
     41      -0.062395   0.007509   0.000201  -0.000042   0.153826   0.197221
     42       0.049529  -0.007843   0.000599  -0.000261   0.138493   0.159347
     43       0.027099  -0.004501   0.000304  -0.000052   0.079410   0.092743
     44       0.168123  -0.023916   0.001329   0.000280   0.453518   0.519057
     45      -0.007613  -0.000473   0.000134  -0.000120   0.004365  -0.002761
     46       0.404195   0.002899  -0.000348  -0.000230   0.216869  -0.127774
     47      -0.439510  -0.002855   0.000274   0.000206  -0.235848   0.132731
     48       0.373928   0.001922  -0.001697   0.001230  -0.617882   0.271494
     49      -0.086439  -0.000221   0.000340  -0.000287   0.130963  -0.055149
     50       0.118607   0.000167  -0.000411   0.000231  -0.180189   0.080464
     51       0.149643  -0.016641   0.005213  -0.002140   0.091736  -0.170068
     52      -0.402910   0.044421  -0.013239   0.004520  -0.244109   0.452068
     53      -0.022686   0.003449  -0.001077   0.000579  -0.018765   0.036327
     54      -0.137778   0.013399  -0.001025  -0.000509   0.046234  -0.095855
     55       0.174272  -0.012871   0.000081   0.001768  -0.056006   0.118328
     56      -0.435454   0.036532  -0.000636  -0.003144   0.147825  -0.313049
                  54         55         56    
      0      -0.000188   0.080314  -0.000013
      1       0.000193  -0.056147   0.000029
      2       0.000344  -0.012303   0.000006
      3       0.000285   0.006922  -0.000539
      4      -0.000179  -0.003888   0.000296
      5      -0.000023   0.005844  -0.000355
      6       0.000448   0.000378   0.001450
      7      -0.000271   0.000167  -0.000894
      8       0.000794   0.001006   0.001686
      9      -0.001165  -0.000008   0.046574
     10       0.001540  -0.000027  -0.036504
     11      -0.001304   0.000029   0.042175
     12       0.011609  -0.000000   0.000838
     13      -0.012677  -0.000007  -0.000767
     14       0.027187   0.000027   0.001462
     15       0.036811   0.000002   0.000162
     16      -0.027568  -0.000006  -0.000182
     17       0.032431   0.000021   0.000226
     18       0.027611   0.000156   0.000946
     19      -0.058244  -0.000227  -0.001306
     20       0.031503   0.000243   0.000974
     21       0.003257  -0.550669   0.000082
     22      -0.002495   0.415881  -0.000174
     23      -0.002436   0.424074  -0.000273
     24      -0.001032  -0.410572   0.000994
     25       0.000508   0.253253  -0.000722
     26      -0.000719  -0.303306   0.000676
     27      -0.003051  -0.072217   0.002721
     28       0.001664   0.040972  -0.001374
     29      -0.001559  -0.048734   0.003081
     30      -0.006163  -0.007960  -0.013230
     31       0.006678   0.005813   0.012842
     32      -0.007670  -0.003356  -0.016605
     33      -0.001274  -0.002185  -0.003689
     34      -0.001522  -0.002825  -0.003685
     35      -0.002046  -0.003132  -0.003581
     36       0.011742  -0.000128  -0.637960
     37      -0.017390   0.000673   0.500916
     38       0.016002  -0.001240  -0.578764
     39      -0.067495  -0.000090  -0.009645
     40       0.193469   0.000141   0.016706
     41      -0.095881   0.000010  -0.005301
     42      -0.069426  -0.000091  -0.004904
     43      -0.040653  -0.000038  -0.000124
     44      -0.223196  -0.000232  -0.012637
     45       0.006646   0.000050   0.000025
     46       0.238659   0.000214   0.001095
     47      -0.259966  -0.000349  -0.001220
     48      -0.444436  -0.000206  -0.001173
     49       0.092983   0.000017   0.000210
     50      -0.127673  -0.000030  -0.000339
     51      -0.199640  -0.000554  -0.005538
     52       0.526130   0.001486   0.011815
     53       0.043972   0.000045  -0.001325
     54      -0.125381  -0.001120  -0.008744
     55       0.157202   0.001014   0.003400
     56      -0.419764  -0.002641  -0.017441


-----------
IR SPECTRUM
-----------

 Mode    freq (cm**-1)   T**2         TX         TY         TZ
-------------------------------------------------------------------
   6:        77.06    1.018873  ( -0.771699  -0.116700  -0.640105)
   7:        90.25    0.527987  ( -0.023022   0.311897   0.655879)
   8:       115.91    0.801250  ( -0.629925   0.618821  -0.146646)
   9:       208.10    1.094295  ( -0.593214  -0.860330   0.047169)
  10:       366.67    1.766349  (  0.120042  -1.016652  -0.847560)
  11:       395.84    0.335136  (  0.413391   0.311219   0.259590)
  12:       435.94    1.018819  ( -0.425817  -0.491687   0.771844)
  13:       603.22    6.630259  ( -1.952959  -1.633608  -0.384101)
  14:       704.10   13.580949  (  1.707648   2.540036  -2.052585)
  15:       785.68    2.083403  (  1.064485  -0.181967  -0.957686)
  16:       809.77    1.894261  ( -0.607194  -1.095411  -0.570660)
  17:       903.78    3.534599  ( -1.436998  -0.510825  -1.099406)
  18:       923.64    2.105709  (  0.668841  -0.845265  -0.971539)
  19:       947.50    2.025282  (  1.124129  -0.139960  -0.861409)
  20:       976.99    2.906856  (  0.025632   1.281391   1.124383)
  21:       999.53   25.226778  ( -4.241877  -1.947492   1.854867)
  22:      1014.44    1.181128  ( -0.122010   0.996945  -0.415140)
  23:      1018.08   54.889241  ( -4.268188  -5.910722   1.317262)
  24:      1028.77    2.332863  (  0.721484   0.020189  -1.346075)
  25:      1079.91   33.100589  ( -4.674717  -2.344452   2.398156)
  26:      1089.13   13.950918  (  1.805177  -1.992393  -2.592803)
  27:      1109.36    2.619806  ( -0.201026   1.196408   1.071449)
  28:      1194.62    1.132216  (  0.986803   0.370046  -0.146633)
  29:      1226.16    2.781519  (  0.286553   1.470681   0.732464)
  30:      1239.13    6.168632  (  1.359224  -1.397031  -1.539301)
  31:      1289.62    3.136304  ( -0.054149   1.245779   1.257540)
  32:      1299.47    1.501798  ( -0.028680   1.066537  -0.602889)
  33:      1317.98    2.957702  ( -0.490012   1.471726  -0.742708)
  34:      1323.30    0.993665  (  0.212393  -0.943509   0.241545)
  35:      1336.21    9.289573  (  0.009877  -0.773814  -2.947997)
  36:      1346.75   21.715548  (  0.264291   2.165218   4.117952)
  37:      1382.46   10.280315  (  1.256408  -1.794515  -2.341254)
  38:      1434.38   31.731107  (  4.731280   1.579561  -2.617458)
  39:      1459.15   21.253430  ( -1.160203   0.750046   4.398271)
  40:      1481.00   13.073837  (  1.453893  -3.263909  -0.554012)
  41:      1485.33    7.005849  ( -0.669312  -1.102857  -2.311185)
  42:      1491.99   12.804321  ( -1.070085  -2.828534   1.912756)
  43:      1515.66    4.484108  (  0.484738  -1.638872   1.250295)
  44:      1725.89    1.433522  (  1.150854  -0.020308  -0.329613)
  45:      3070.84    2.764265  ( -0.950631   0.990892   0.937389)
  46:      3116.64    1.482859  (  0.125073   1.033778   0.631284)
  47:      3121.36    0.271684  ( -0.005273   0.459661   0.245700)
  48:      3123.68    2.797414  ( -0.786356  -0.743071   1.275501)
  49:      3134.90    0.282400  ( -0.479854   0.192786  -0.122368)
  50:      3159.46    2.372974  (  1.264060  -0.820779   0.318511)
  51:      3164.40    0.365255  ( -0.094442   0.054990  -0.594401)
  52:      3180.18    0.054506  (  0.153832  -0.110893  -0.136179)
  53:      3189.38    0.403819  (  0.034642  -0.387581  -0.502394)
  54:      3197.07    0.023872  (  0.034413  -0.100631  -0.112078)
  55:      3256.42    0.196734  (  0.129449  -0.011052   0.424093)
  56:      3478.05   48.252509  ( -4.839816   3.000955  -3.977809)

The first frequency considered to be a vibration is 6
The total number of vibrations considered is 51


--------------------------
THERMOCHEMISTRY AT 298.15K
--------------------------

Temperature         ... 298.15 K
Pressure            ... 1.00 atm
Total Mass          ... 98.17 AMU

Throughout the following assumptions are being made:
  (1) The electronic state is orbitally nondegenerate
  (2) There are no thermally accessible electronically excited states
  (3) Hindered rotations indicated by low frequency modes) are not
      treated as such but are treated as vibrations and this may
      case some error
  (4) All equations used are the standard statistical mechanics
      equations for an ideal gas
  (5) All vibrations are strinctly harmonic


------------
INNER ENERGY
------------

The inner energy is: U= E(el) + E(ZPE) + E(vib) + E(rot) + E(trans)
    E(el)   - is the total energy from the electronic structure calculation
              = E(kin-el) + E(nuc-el) + E(el-el) + E(nuc-nuc)
    E(ZPE)  - the the zero temperature vibrational energy from the frequency calculation
    E(vib)  - the the finite temperature correction to E(ZPE) due to population
              of excietd vibrational states
    E(rot)  - is the rotational thermal energy
    E(trans)- is the translational thermal energy

Summary of contributions to the inner energy U:
Electronic energy                ...   -290.07564586 Eh
Zero point energy                ...      0.17638737 Eh     110.68 kcal/mol
Thermal vibrational correction   ...      0.00470147 Eh       2.95 kcal/mol
Thermal rotational correction    ...      0.00141627 Eh       0.89 kcal/mol
Thermal translational correction ...      0.00141627 Eh       0.89 kcal/mol
-----------------------------------------------------------------------
Total thermal energy                   -289.89172447 Eh


Summary of corrections to the electronic energy:
(perhaps to be used in another calculation)
Total thermal correction                  0.00753402 Eh       4.73 kcal/mol
Non-thermal (ZPE) correction              0.17638737 Eh     110.68 kcal/mol
-----------------------------------------------------------------------
Total correction                          0.18392139 Eh     115.41 kcal/mol


--------
ENTHALPY
--------

The enthalpy is H = U + kB*T
                kB is Boltzmann's constant
Total free energy                 ...   -289.89172447 Eh 
Thermal Enthalpy correction       ...      0.00094421 Eh       0.59 kcal/mol
-----------------------------------------------------------------------
Total Enthalpy                    ...   -289.89078026 Eh


-------
ENTROPY
-------

The entropy contributions are T*S = T*(S(el)+S(vib)+S(rot)+S(trans)
     S(el)   - electronic entropy
     S(vib)  - vibrational entropy
     S(rot)  - rotational entropy
     S(trans)- translational entropy
The entropies will be listed as mutliplied by the temperature to get
units of energy

Electronic entropy                ...      0.00000000 Eh      0.00 kcal/mol
Vibrational entropy               ...      0.00870392 Eh      5.46 kcal/mol
Rotational entropy                ...      0.01207536 Eh      7.58 kcal/mol
Translational entropy             ...      0.01884507 Eh     11.83 kcal/mol
-----------------------------------------------------------------------
Final entropy term                ...      0.03962435 Eh     24.86 kcal/mol


CAUTION: The rotational entropy is not quite correctly treated here
         because it includes a symmetry number that is not yet correctly
         implemented in ORCA!
For a nonlinear molecule the correct rotational entropy is:
    S(rot) = R*(ln(qrot/sn)+1.5)
    R    = 8.31441 J/mol/K = 1.987191683e-3 kcal/mol/K
    qrot = 239870.0367648
    sn is the rotational symmetry number. We have assumed 3 here
       if it is different for your molecule then you should correct
       the printed rotational entropy by manually evaluating the equation
       as given above

For convenience we print out the resulting values for sn=1 - 12:
 sn= 1  qrot/sn=  239870.0368 T*S(rot)=     8.23 kcal/mol T*S(tot)=    25.52 kcal/mol
 sn= 2  qrot/sn=  119935.0184 T*S(rot)=     7.82 kcal/mol T*S(tot)=    25.10 kcal/mol
 sn= 3  qrot/sn=   79956.6789 T*S(rot)=     7.58 kcal/mol T*S(tot)=    24.86 kcal/mol
 sn= 4  qrot/sn=   59967.5092 T*S(rot)=     7.41 kcal/mol T*S(tot)=    24.69 kcal/mol
 sn= 5  qrot/sn=   47974.0074 T*S(rot)=     7.27 kcal/mol T*S(tot)=    24.56 kcal/mol
 sn= 6  qrot/sn=   39978.3395 T*S(rot)=     7.17 kcal/mol T*S(tot)=    24.45 kcal/mol
 sn= 7  qrot/sn=   34267.1481 T*S(rot)=     7.08 kcal/mol T*S(tot)=    24.36 kcal/mol
 sn= 8  qrot/sn=   29983.7546 T*S(rot)=     7.00 kcal/mol T*S(tot)=    24.28 kcal/mol
 sn= 9  qrot/sn=   26652.2263 T*S(rot)=     6.93 kcal/mol T*S(tot)=    24.21 kcal/mol
 sn=10  qrot/sn=   23987.0037 T*S(rot)=     6.86 kcal/mol T*S(tot)=    24.15 kcal/mol
 sn=11  qrot/sn=   21806.3670 T*S(rot)=     6.81 kcal/mol T*S(tot)=    24.09 kcal/mol
 sn=12  qrot/sn=   19989.1697 T*S(rot)=     6.76 kcal/mol T*S(tot)=    24.04 kcal/mol


-------------------
GIBBS FREE ENTHALPY
-------------------

The Gibbs free enthalpy is G = H - T*S

Total enthalpy                    ...   -289.89078026 Eh 
Total entropy correction          ...     -0.03962435 Eh    -24.86 kcal/mol
-----------------------------------------------------------------------
Final Gibbs free enthalpy         ...   -289.93040460 Eh

For completeness - the Gibbs free enthalpy minus the electronic energy
G-E(el)                           ...      0.14524126 Eh     91.14 kcal/mol


Timings for individual modules:

Sum of individual times         ...     2757.524 sec (=  45.959 min)
GTO integral calculation        ...       10.699 sec (=   0.178 min)   0.4 %
SCF iterations                  ...      300.179 sec (=   5.003 min)  10.9 %
SCF Gradient evaluation         ...      153.936 sec (=   2.566 min)   5.6 %
Geometry relaxation             ...        0.329 sec (=   0.005 min)   0.0 %
Analytical frequency calculation...     2292.381 sec (=  38.206 min)  83.1 %
                             ****ORCA TERMINATED NORMALLY****
TOTAL RUN TIME: 0 days 0 hours 45 minutes 59 seconds 318 msec
