
                                 *****************
                                 * O   R   C   A *
                                 *****************

           --- An Ab Initio, DFT and Semiempirical electronic structure package ---

                  #######################################################
                  #                        -***-                        #
                  #  Department of molecular theory and spectroscopy    #
                  #              Directorship: Frank Neese              #
                  # Max Planck Institute for Chemical Energy Conversion #
                  #                  D-45470 Muelheim/Ruhr              #
                  #                       Germany                       #
                  #                                                     #
                  #                  All rights reserved                #
                  #                        -***-                        #
                  #######################################################


                         Program Version 3.0.3 - RELEASE   -


 With contributions from (in alphabetic order):
   Ute Becker             : Parallelization
   Dmytro Bykov           : SCF Hessian
   Dmitry Ganyushin       : Spin-Orbit,Spin-Spin,Magnetic field MRCI
   Andreas Hansen         : Spin unrestricted coupled pair/coupled cluster methods
   Dimitrios Liakos       : Extrapolation schemes; parallel MDCI
   Robert Izsak           : Overlap fitted RIJCOSX, COSX-SCS-MP3
   Christian Kollmar      : KDIIS, OOCD, Brueckner-CCSD(T), CCSD density
   Simone Kossmann        : Meta GGA functionals, TD-DFT gradient, OOMP2, MP2 Hessian
   Taras Petrenko         : DFT Hessian,TD-DFT gradient, ASA and ECA modules, normal mode analysis, Resonance Raman, ABS, FL, XAS/XES, NRVS
   Christoph Reimann      : Effective Core Potentials
   Michael Roemelt        : Restricted open shell CIS
   Christoph Riplinger    : Improved optimizer, TS searches, QM/MM, DLPNO-CCSD
   Barbara Sandhoefer     : DKH picture change effects
   Igor Schapiro          : Molecular dynamics
   Kantharuban Sivalingam : CASSCF convergence, NEVPT2
   Boris Wezisla          : Elementary symmetry handling
   Frank Wennmohs         : Technical directorship


 We gratefully acknowledge several colleagues who have allowed us to
 interface, adapt or use parts of their codes:
   Stefan Grimme, W. Hujo, H. Kruse, T. Risthaus : VdW corrections, initial TS optimization,
                                                   DFT functionals, gCP
   Ed Valeev                                     : LibInt (2-el integral package), F12 methods
   Garnet Chan, S. Sharma, R. Olivares           : DMRG
   Ulf Ekstrom                                   : XCFun DFT Library
   Mihaly Kallay                                 : mrcc  (arbitrary order and MRCC methods)
   Andreas Klamt, Michael Diedenhofen            : otool_cosmo (COSMO solvation model)
   Frank Weinhold                                : gennbo (NPA and NBO analysis)
   Christopher J. Cramer and Donald G. Truhlar   : smd solvation model


 Your calculation uses the libint2 library for the computation of 2-el integrals
 For citations please refer to: http://libint.valeyev.net

 This ORCA versions uses:
   CBLAS   interface :  Fast vector & matrix operations
   LAPACKE interface :  Fast linear algebra routines
   SCALAPACK package :  Parallel linear algebra routines


Your calculation utilizes the basis: Ahlrichs-TZV
Cite in your paper:
H - Kr: A. Schaefer, H. Horn and R. Ahlrichs, J. Chem. Phys. 97, 2571 (1992).

The def2-TZV basis will be loaded
Cite in your paper:
 	F. Weigend, R. Ahlrichs, Phys. Chem. Chem. Phys. 2005, 7, 3297.

================================================================================
                                        WARNINGS
                       Please study these warnings very carefully!
================================================================================
Now building the actual basis set
WARNING: Geometry optimizations can change the point-group symmetry!

WARNING: Geometry Optimization
  ===> : Switching off AutoStart
         For restart on a previous wavefunction, please use MOREAD


INFO   : the flag for use of LIBINT has been found!

================================================================================
                                       INPUT FILE
================================================================================
NAME = 2375_+.inp
|  1> ! NORI PBE0 def2-TZVP UseSym TightOPT Freq TightSCF Grid3 FinalGrid5 XYZFile
|  2> % pal
|  3>     nprocs 8
|  4> end
|  5> %method
|  6>     SymThresh 5.0e-2
|  7> end
|  8> % geom 
|  9>     MaxIter 10
| 10> end 
| 11> % maxcore 2000
| 12> % output
| 13>     printlevel mini
| 14>     print[ P_Basis ] 0
| 15>     print[ P_SCFInfo ] 1
| 16>     print[ P_SCFIterInfo ] 1
| 17>     print[ P_OrbEn ] 0
| 18>     print[ P_Cartesian ] 0
| 19> end
| 20> % elprop
| 21>     Dipole false
| 22> end
| 23> *xyz 1 1
| 24>  C        1.1095474019    -0.3110150706    -0.1532533171 
| 25>  C        2.6220325364    -0.3318189078    -0.0015221953 
| 26>  C        3.1177171623     0.0813765256     1.3698242254 
| 27>  N        2.5693386789    -0.8869427900     2.3994675276 
| 28>  C        4.6379581907     0.1105766493     1.5115122225 
| 29>  C        5.2174463643     1.1404325420     0.6713470893 
| 30>  C        5.6864960032     2.0003101810    -0.0185169719 
| 31>  H        0.8312210551    -0.5125157592    -1.1876885815 
| 32>  H        0.6934434553     0.6647630965     0.1109563957 
| 33>  H        0.5996858673    -1.0767779242     0.4431170623 
| 34>  H        3.0781546896     0.3666834861    -0.7067297642 
| 35>  H        3.0302917362    -1.3189079384    -0.2526217133 
| 36>  H        2.7008747742     1.0530774417     1.6480971615 
| 37>  H        2.9413008713    -1.8273002518     2.2449848376 
| 38>  H        1.5509224622    -0.9413922483     2.3244122205 
| 39>  H        2.8080128722    -0.6066100352     3.3523298957 
| 40>  H        4.9193548037     0.3006546700     2.5550411307 
| 41>  H        5.0547461959    -0.8676230473     1.2379286941 
| 42>  H        6.1151648792     2.7638593806    -0.6275959196 
| 43> *
| 44> 
| 45>                          ****END OF INPUT****
================================================================================

The point group is C1 - hence turning off symmetry
If this is a round-off problem, please increase the symmetry
        detection tolerance (%method SymThresh)


                       *****************************
                       * Geometry Optimization Run *
                       *****************************

Geometry optimization settings:
Update method            Update   .... BFGS
Choice of coordinates    CoordSys .... Redundant Internals
Initial Hessian          InHess   .... Almoef's Model

Convergence Tolerances:
Energy Change            TolE     ....  1.0000e-06 Eh
Max. Gradient            TolMAXG  ....  1.0000e-04 Eh/bohr
RMS Gradient             TolRMSG  ....  3.0000e-05 Eh/bohr
Max. Displacement        TolMAXD  ....  1.0000e-03 bohr
RMS Displacement         TolRMSD  ....  6.0000e-04 bohr

------------------------------------------------------------------------------
                        ORCA OPTIMIZATION COORDINATE SETUP
------------------------------------------------------------------------------

The optimization will be done in new redundant internal coordinates
Making redundant internal coordinates   ...  (new redundants) done
Evaluating the initial hessian          ...  (Almloef) done
Evaluating the coordinates              ...  done
Calculating the B-matrix                .... done
Calculating the G-matrix                .... done
Diagonalizing the G-matrix              .... done
Small eigenvalue found = 1.644e-02
The first mode is                       ....   37
The number of degrees of freedom        ....   51

    -----------------------------------------------------------------
                    Redundant Internal Coordinates


    -----------------------------------------------------------------
         Definition                    Initial Value    Approx d2E/dq
    -----------------------------------------------------------------
      1. B(C   1,C   0)                  1.5202         0.387242   
      2. B(C   2,C   1)                  1.5156         0.393878   
      3. B(N   3,C   2)                  1.5161         0.352134   
      4. B(C   4,C   2)                  1.5271         0.377564   
      5. B(C   5,C   4)                  1.4499         0.501337   
      6. B(C   6,C   5)                  1.1980         1.264713   
      7. B(H   7,C   0)                  1.0900         0.360085   
      8. B(H   8,C   0)                  1.0932         0.355888   
      9. B(H   9,C   0)                  1.0964         0.351782   
     10. B(H  10,C   1)                  1.0924         0.356979   
     11. B(H  11,C   1)                  1.0973         0.350569   
     12. B(H  12,C   2)                  1.0933         0.355706   
     13. B(H  13,N   3)                  1.0230         0.412556   
     14. B(H  14,N   3)                  1.0226         0.413092   
     15. B(H  15,N   3)                  1.0215         0.414781   
     16. B(H  16,C   4)                  1.0974         0.350455   
     17. B(H  17,C   4)                  1.0979         0.349770   
     18. B(H  18,C   6)                  1.0666         0.392353   
     19. A(C   1,C   0,H   8)          111.5174         0.325609   
     20. A(C   1,C   0,H   7)          110.2571         0.326238   
     21. A(C   1,C   0,H   9)          113.5053         0.324989   
     22. A(H   7,C   0,H   9)          105.5664         0.289773   
     23. A(H   8,C   0,H   9)          108.3583         0.289241   
     24. A(H   7,C   0,H   8)          107.2880         0.290301   
     25. A(C   0,C   1,H  10)          110.0137         0.325773   
     26. A(C   2,C   1,H  10)          105.8572         0.326686   
     27. A(C   0,C   1,H  11)          111.0778         0.324804   
     28. A(H  10,C   1,H  11)          105.7910         0.289223   
     29. A(C   2,C   1,H  11)          109.3062         0.325713   
     30. A(C   0,C   1,C   2)          114.3287         0.368925   
     31. A(C   1,C   2,C   4)          114.5036         0.367326   
     32. A(C   4,C   2,H  12)          109.8118         0.324231   
     33. A(N   3,C   2,H  12)          104.8851         0.318642   
     34. A(C   1,C   2,H  12)          110.3588         0.326494   
     35. A(N   3,C   2,C   4)          108.0158         0.358124   
     36. A(C   1,C   2,N   3)          108.7888         0.360713   
     37. A(H  14,N   3,H  15)          108.4066         0.298998   
     38. A(H  13,N   3,H  15)          107.9490         0.298937   
     39. A(C   2,N   3,H  15)          111.9448         0.323998   
     40. A(H  13,N   3,H  14)          107.5826         0.298743   
     41. A(C   2,N   3,H  14)          110.1438         0.323781   
     42. A(C   2,N   3,H  13)          110.6729         0.323712   
     43. A(C   2,C   4,H  17)          109.7400         0.323336   
     44. A(C   5,C   4,H  16)          108.9960         0.338979   
     45. A(C   2,C   4,H  16)          110.2923         0.323440   
     46. A(C   2,C   4,C   5)          110.9583         0.382945   
     47. A(H  16,C   4,H  17)          107.0935         0.288286   
     48. A(C   5,C   4,H  17)          109.6771         0.338868   
     49. L(C   4,C   5,C   6,C   2, 2) 179.1922         0.475451   
     50. L(C   4,C   5,C   6,C   2, 1) 179.5301         0.475451   
     51. L(C   5,C   6,H  18, 2)       179.3463         0.405199   
     52. L(C   5,C   6,H  18, 1)       179.8142         0.405199   
     53. D(H  10,C   1,C   0,H   9)    173.1354         0.011929   
     54. D(H  11,C   1,C   0,H   9)     56.3421         0.011929   
     55. D(H  11,C   1,C   0,H   8)    179.0707         0.011929   
     56. D(H  10,C   1,C   0,H   7)     54.9424         0.011929   
     57. D(C   2,C   1,C   0,H   9)    -67.9293         0.011929   
     58. D(H  10,C   1,C   0,H   8)    -64.1360         0.011929   
     59. D(C   2,C   1,C   0,H   8)     54.7994         0.011929   
     60. D(C   2,C   1,C   0,H   7)    173.8777         0.011929   
     61. D(H  11,C   1,C   0,H   7)    -61.8509         0.011929   
     62. D(C   4,C   2,C   1,H  10)    -56.6400         0.012324   
     63. D(N   3,C   2,C   1,H  11)    -64.0449         0.012324   
     64. D(N   3,C   2,C   1,H  10)   -177.5767         0.012324   
     65. D(N   3,C   2,C   1,C   0)     61.1660         0.012324   
     66. D(C   4,C   2,C   1,H  11)     56.8919         0.012324   
     67. D(H  12,C   2,C   1,H  11)   -178.6060         0.012324   
     68. D(H  12,C   2,C   1,H  10)     67.8621         0.012324   
     69. D(H  12,C   2,C   1,C   0)    -53.3952         0.012324   
     70. D(C   4,C   2,C   1,C   0)   -177.8972         0.012324   
     71. D(H  15,N   3,C   2,C   4)     60.0797         0.011423   
     72. D(H  15,N   3,C   2,C   1)   -175.0775         0.011423   
     73. D(H  14,N   3,C   2,H  12)     63.6903         0.011423   
     74. D(H  14,N   3,C   2,C   4)   -179.2302         0.011423   
     75. D(H  14,N   3,C   2,C   1)    -54.3874         0.011423   
     76. D(H  13,N   3,C   2,H  12)   -177.4730         0.011423   
     77. D(H  13,N   3,C   2,C   4)    -60.3935         0.011423   
     78. D(H  15,N   3,C   2,H  12)    -56.9998         0.011423   
     79. D(H  13,N   3,C   2,C   1)     64.4493         0.011423   
     80. D(H  16,C   4,C   2,C   1)   -173.3170         0.011369   
     81. D(C   5,C   4,C   2,H  12)    -58.9894         0.011369   
     82. D(C   5,C   4,C   2,N   3)   -172.8357         0.011369   
     83. D(C   5,C   4,C   2,C   1)     65.8021         0.011369   
     84. D(H  17,C   4,C   2,H  12)    179.6426         0.011369   
     85. D(H  17,C   4,C   2,N   3)     65.7964         0.011369   
     86. D(H  17,C   4,C   2,C   1)    -55.5659         0.011369   
     87. D(H  16,C   4,C   2,H  12)     61.8916         0.011369   
     88. D(H  16,C   4,C   2,N   3)    -51.9547         0.011369   
    -----------------------------------------------------------------

Number of atoms                         .... 19
Number of degrees of freedom            .... 88

         *************************************************************
         *                GEOMETRY OPTIMIZATION CYCLE   1            *
         *************************************************************


           ************************************************************
           *        Program running with 8 parallel MPI-processes     *
           *              working on a common directory               *
           ************************************************************
           ************************************************************
           *              Shut down parallel processing               *
           ************************************************************


           ************************************************************
           *        Program running with 8 parallel MPI-processes     *
           *              working on a common directory               *
           ************************************************************
------------
SCF SETTINGS
------------
Hamiltonian:
 Density Functional     Method          .... DFT(GTOs)
 Exchange Functional    Exchange        .... PBE
   PBE kappa parameter  XKappa          ....  0.804000
 Correlation Functional Correlation     .... PBE
 LDA part of GGA corr.  LDAOpt          .... PW91-LDA
 Gradients option       PostSCFGGA      .... off
 Hybrid DFT is turned on
   Fraction HF Exchange ScalHFX         ....  0.250000
   Scaling of DF-GGA-X  ScalDFX         ....  0.750000
   Scaling of DF-GGA-C  ScalDFC         ....  1.000000
   Scaling of DF-LDA-C  ScalLDAC        ....  1.000000
   Perturbative correction              ....  0.000000
   NL short-range parameter             ....  6.900000


General Settings:
 Integral files         IntName         .... 2375_+
 Hartree-Fock type      HFTyp           .... RHF
 Total Charge           Charge          ....    1
 Multiplicity           Mult            ....    1
 Number of Electrons    NEL             ....   54
 Basis Dimension        Dim             ....  289
 Nuclear Repulsion      ENuc            ....    301.3785335386 Eh

Convergence Acceleration:
 DIIS                   CNVDIIS         .... on
   Start iteration      DIISMaxIt       ....    12
   Startup error        DIISStart       ....  0.200000
   # of expansion vecs  DIISMaxEq       ....     5
   Bias factor          DIISBfac        ....   1.050
   Max. coefficient     DIISMaxC        ....  10.000
 Newton-Raphson         CNVNR           .... off
 SOSCF                  CNVSOSCF        .... on
   Start iteration      SOSCFMaxIt      ....   150
   Startup grad/error   SOSCFStart      ....  0.003300
 Level Shifting         CNVShift        .... on
   Level shift para.    LevelShift      ....    0.2500
   Turn off err/grad.   ShiftErr        ....    0.0010
 Zerner damping         CNVZerner       .... off
 Static damping         CNVDamp         .... on
   Fraction old density DampFac         ....    0.7000
   Max. Damping (<1)    DampMax         ....    0.9800
   Min. Damping (>=0)   DampMin         ....    0.0000
   Turn off err/grad.   DampErr         ....    0.1000
 Fernandez-Rico         CNVRico         .... off

SCF Procedure:
 Maximum # iterations   MaxIter         ....   125
 SCF integral mode      SCFMode         .... Direct
   Integral package                     .... LIBINT
 Reset frequeny         DirectResetFreq ....    20
 Integral Threshold     Thresh          ....  2.500e-11 Eh
 Primitive CutOff       TCut            ....  2.500e-12 Eh

Convergence Tolerance:
 Convergence Check Mode ConvCheckMode   .... Total+1el-Energy
 Energy Change          TolE            ....  1.000e-08 Eh
 1-El. energy change                    ....  1.000e-05 Eh
 Orbital Gradient       TolG            ....  1.000e-05
 Orbital Rotation angle TolX            ....  1.000e-05
 DIIS Error             TolErr          ....  5.000e-07


Diagonalization of the overlap matrix:
Smallest eigenvalue                        ... 1.812e-05
Time for diagonalization                   ...    0.445 sec
Threshold for overlap eigenvalues          ... 1.000e-08
Number of eigenvalues below threshold      ... 0
Time for construction of square roots      ...    0.013 sec
Total time needed                          ...    0.458 sec

-------------------
DFT GRID GENERATION
-------------------

General Integration Accuracy     IntAcc      ...  4.340
Radial Grid Type                 RadialGrid  ... Gauss-Chebyshev
Angular Grid (max. acc.)         AngularGrid ... Lebedev-194
Angular grid pruning method      GridPruning ... 3 (G Style)
Weight generation scheme         WeightScheme... Becke
Basis function cutoff            BFCut       ...    1.0000e-11
Integration weight cutoff        WCut        ...    1.0000e-14
Grids for H and He will be reduced by one unit

# of grid points (after initial pruning)     ...  41338 (   0.0 sec)
# of grid points (after weights+screening)   ...  37697 (   0.1 sec)
nearest neighbour list constructed           ...    0.0 sec
Grid point re-assignment to atoms done       ...    0.0 sec
Grid point division into batches done        ...    0.1 sec
Reduced shell lists constructed in    0.2 sec

Total number of grid points                  ...    37697
Total number of batches                      ...      598
Average number of points per batch           ...       63
Average number of grid points per atom       ...     1984
Average number of shells per batch           ...   101.13 (80.91%)
Average number of basis functions per batch  ...   239.76 (82.96%)
Average number of large shells per batch     ...    83.58 (82.64%)
Average number of large basis fcns per batch ...   196.42 (81.92%)
Maximum spatial batch extension              ...   2.27,  2.11,  2.34 au
Average spatial batch extension              ...   0.14,  0.14,  0.14 au

Time for grid setup =    0.562 sec

Loading Hartree-Fock densities                     ... done
Calculating cut-offs                               ... done
Setting up the integral package                    ... done
Initializing the effective Hamiltonian             ... done
Starting the Coulomb interaction                   ... done (   0.1 sec)
Reading the grid                                   ... done
Mapping shells                                     ... done
Starting the XC term evaluation                    ... done (   0.3 sec)
  promolecular density results
     # of electrons  =     54.998904102
     EX              =    -40.770706595
     EC              =     -1.785477947
     EX+EC           =    -42.556184542
Transforming the Hamiltonian                       ... done (   0.0 sec)
Diagonalizing the Hamiltonian                      ... done (   0.2 sec)
Back transforming the eigenvectors                 ... done (   0.0 sec)
Now organizing SCF variables                       ... done
--------------
SCF ITERATIONS
--------------
ITER       Energy         Delta-E        Max-DP      RMS-DP      [F,P]     Damp
               ***  Starting incremental Fock matrix formation  ***
  0   -289.8537531787   0.000000000000 0.07237826  0.00109873  0.1759101 0.7000
  1   -289.9424123490  -0.088659170274 0.05997000  0.00087658  0.0932805 0.7000
                               ***Turning on DIIS***
  2   -289.9832056113  -0.040793262329 0.11051110  0.00170766  0.0377390 0.0000
  3   -290.0407995842  -0.057593972901 0.04543663  0.00060161  0.0488504 0.0000
  4   -290.0553674832  -0.014567898988 0.01665968  0.00022242  0.0081636 0.0000
                      *** Initiating the SOSCF procedure ***
                           *** Shutting down DIIS ***
                      *** Re-Reading the Fockian *** 
                      *** Removing any level shift *** 
ITER      Energy       Delta-E        Grad      Rot      Max-DP    RMS-DP
  5   -290.05593374  -0.0005662577  0.000640  0.000640  0.003810  0.000085
               *** Restarting incremental Fock matrix formation ***
  6   -290.05597688  -0.0000431354  0.000320  0.000903  0.002571  0.000058
  7   -290.05597548   0.0000013981  0.000655  0.000786  0.000817  0.000015
  8   -290.05598069  -0.0000052079  0.000156  0.000316  0.000773  0.000015
  9   -290.05598071  -0.0000000237  0.000074  0.000095  0.000315  0.000005
 10   -290.05598111  -0.0000004046  0.000013  0.000014  0.000050  0.000001
 11   -290.05598112  -0.0000000010  0.000013  0.000007  0.000016  0.000000
                  ***Gradient check signals convergence***
              ***Rediagonalizing the Fockian in SOSCF/NRSCF***

               *****************************************************
               *                     SUCCESS                       *
               *           SCF CONVERGED AFTER  12 CYCLES          *
               *****************************************************

Setting up the final grid:

General Integration Accuracy     IntAcc      ...  5.010
Radial Grid Type                 RadialGrid  ... Gauss-Chebyshev
Angular Grid (max. acc.)         AngularGrid ... Lebedev-434
Angular grid pruning method      GridPruning ... 3 (G Style)
Weight generation scheme         WeightScheme... Becke
Basis function cutoff            BFCut       ...    1.0000e-11
Integration weight cutoff        WCut        ...    1.0000e-14
Grids for H and He will be reduced by one unit

# of grid points (after initial pruning)     ... 155082 (   0.0 sec)
# of grid points (after weights+screening)   ... 139721 (   0.3 sec)
nearest neighbour list constructed           ...    0.0 sec
Grid point re-assignment to atoms done       ...    0.0 sec
Grid point division into batches done        ...    1.0 sec
Reduced shell lists constructed in    1.3 sec

Total number of grid points                  ...   139721
Total number of batches                      ...     2193
Average number of points per batch           ...       63
Average number of grid points per atom       ...     7354
Average number of shells per batch           ...   100.03 (80.02%)
Average number of basis functions per batch  ...   237.23 (82.09%)
Average number of large shells per batch     ...    81.57 (81.55%)
Average number of large basis fcns per batch ...   191.85 (80.87%)
Maximum spatial batch extension              ...   2.27,  2.09,  1.97 au
Average spatial batch extension              ...   0.10,  0.10,  0.10 au

Final grid set up in    2.5 sec
Final integration                            ... done (   0.9 sec)
Change in XC energy                          ...     0.000659478
Integrated number of electrons               ...    53.999978852
Previous integrated no of electrons          ...    54.002275210
Total Energy       :         -290.05532164 Eh           -7892.80656 eV
  Last Energy change         ...   -4.9431e-09  Tolerance :   1.0000e-08
  Last MAX-Density change    ...    7.8325e-06  Tolerance :   1.0000e-07
             **** THE GBW FILE WAS UPDATED (2375_+.gbw) ****
             **** DENSITY FILE WAS UPDATED (2375_+.scfp.tmp) ****
             **** ENERGY FILE WAS UPDATED (2375_+.en.tmp) ****
Total SCF time: 0 days 0 hours 1 min 35 sec 
           ************************************************************
           *              Shut down parallel processing               *
           ************************************************************

-------------------------   --------------------
FINAL SINGLE POINT ENERGY      -290.055321642372
-------------------------   --------------------



           ************************************************************
           *        Program running with 8 parallel MPI-processes     *
           *              working on a common directory               *
           ************************************************************
------------------------------------------------------------------------------
                         ORCA SCF GRADIENT CALCULATION
------------------------------------------------------------------------------

Gradient of the Kohn-Sham DFT energy:
Kohn-Sham wavefunction type      ... RKS
Hartree-Fock exchange scaling    ...    0.250
Number of operators              ...    1
Number of atoms                  ...   19
Basis set dimensions             ...  289
Integral neglect threshold       ... 2.5e-11
Integral primitive cutoff        ... 2.5e-12

Nuclear repulsion gradient       ... done
One Electron Gradient            ... done
Pre-screening matrix             ... done
Starting the two electron gradient:
Two electron gradient done
Exchange-correlation gradient    ... done

------------------
CARTESIAN GRADIENT
------------------

   1   C   :   -0.000232006    0.000328837   -0.000032604
   2   C   :    0.000220445    0.000013854   -0.000147777
   3   C   :   -0.000129046    0.000096552    0.000235984
   4   N   :   -0.000105975   -0.000071444   -0.000278651
   5   C   :   -0.000085473   -0.000157651   -0.000059525
   6   C   :    0.000226358    0.000048970    0.000177029
   7   C   :   -0.000131644    0.000088961   -0.000052695
   8   H   :    0.000003520   -0.000080267    0.000070331
   9   H   :   -0.000053108   -0.000172305   -0.000018349
  10   H   :    0.000056584   -0.000059883   -0.000000995
  11   H   :   -0.000050774    0.000030228    0.000122853
  12   H   :   -0.000073204   -0.000009336   -0.000030983
  13   H   :    0.000116974   -0.000043033   -0.000001490
  14   H   :    0.000015654   -0.000038719    0.000036870
  15   H   :    0.000109239    0.000001499   -0.000000632
  16   H   :    0.000020933    0.000043929   -0.000049994
  17   H   :    0.000010776    0.000074514   -0.000014072
  18   H   :    0.000023579   -0.000013979    0.000009895
  19   H   :    0.000057170   -0.000080728    0.000034804

Norm of the cartesian gradient     ...    0.000828961
RMS gradient                       ...    0.000109799
MAX gradient                       ...    0.000328837

-------
TIMINGS
-------

Total SCF gradient time            ...       32.375 sec

One electron gradient       ....       0.196 sec  (  0.6%)
Prescreening matrices       ....       0.536 sec  (  1.7%)
Two electron gradient       ....      27.355 sec  ( 84.5%)
XC gradient                 ....       3.890 sec  ( 12.0%)
           ************************************************************
           *              Shut down parallel processing               *
           ************************************************************
------------------------------------------------------------------------------
                         ORCA GEOMETRY RELAXATION STEP
------------------------------------------------------------------------------

Reading the OPT-File                    .... done
Getting information on internals        .... done
Copying old internal coords+grads       .... done
Making the new internal coordinates     .... (new redundants).... done
Validating the new internal coordinates .... (new redundants).... done
Calculating the B-matrix                .... done
Calculating the G,G- and P matrices     .... done
Transforming gradient to internals      .... done
Projecting the internal gradient        .... done
Number of atoms                         ....  19
Number of internal coordinates          ....  88
Current Energy                          ....  -290.055321642 Eh
Current gradient norm                   ....     0.000828961 Eh/bohr
Maximum allowed component of the step   ....  0.300
Current trust radius                    ....  0.300
Evaluating the initial hessian          ....  (Almloef) done
Projecting the Hessian                  .... done
Forming the augmented Hessian           .... done
Diagonalizing the augmented Hessian     .... done
Last element of RFO vector              ....  0.999988562
Lowest eigenvalues of augmented Hessian:
 -0.000002239  0.011369418  0.011423134  0.011929374  0.012323632
Length of the computed step             ....  0.004782873
The final length of the internal step   ....  0.004782873
Converting the step to cartesian space:
 Initial RMS(Int)=    0.0005098560
Transforming coordinates:
 Iter   0:  RMS(Cart)=    0.0017899219 RMS(Int)=    0.0005097102
 Iter   1:  RMS(Cart)=    0.0000116281 RMS(Int)=    0.0000037051
 Iter   2:  RMS(Cart)=    0.0000054299 RMS(Int)=    0.0000017685
 Iter   3:  RMS(Cart)=    0.0000026410 RMS(Int)=    0.0000008631
 Iter   4:  RMS(Cart)=    0.0000012836 RMS(Int)=    0.0000004215
 Iter   5:  RMS(Cart)=    0.0000006234 RMS(Int)=    0.0000002061
 Iter   6:  RMS(Cart)=    0.0000003025 RMS(Int)=    0.0000001009
 Iter   7:  RMS(Cart)=    0.0000001466 RMS(Int)=    0.0000000494
 Iter   8:  RMS(Cart)=    0.0000000710 RMS(Int)=    0.0000000243
done
Storing new coordinates                 .... done

                                .--------------------.
          ----------------------|Geometry convergence|---------------------
          Item                value                 Tolerance   Converged
          -----------------------------------------------------------------
          RMS gradient        0.00008519            0.00003000      NO
          MAX gradient        0.00033068            0.00010000      NO
          RMS step            0.00050986            0.00060000      YES
          MAX step            0.00130927            0.00100000      NO
          ....................................................
          Max(Bonds)      0.0004      Max(Angles)    0.06
          Max(Dihed)        0.08      Max(Improp)    0.00
          -----------------------------------------------------------------

The optimization has not yet converged - more geometry cycles are needed


    ---------------------------------------------------------------------------
                         Redundant Internal Coordinates
                            (Angstroem and degrees)

        Definition                    Value    dE/dq     Step     New-Value
    ----------------------------------------------------------------------------
     1. B(C   1,C   0)                1.5202 -0.000194  0.0003    1.5205   
     2. B(C   2,C   1)                1.5156 -0.000068  0.0001    1.5157   
     3. B(N   3,C   2)                1.5161 -0.000298  0.0004    1.5165   
     4. B(C   4,C   2)                1.5271 -0.000134  0.0002    1.5273   
     5. B(C   5,C   4)                1.4499 -0.000181  0.0002    1.4501   
     6. B(C   6,C   5)                1.1980  0.000020 -0.0000    1.1980   
     7. B(H   7,C   0)                1.0900 -0.000069  0.0001    1.0901   
     8. B(H   8,C   0)                1.0932  0.000169 -0.0003    1.0930   
     9. B(H   9,C   0)                1.0964 -0.000006  0.0000    1.0964   
    10. B(H  10,C   1)                1.0924 -0.000123  0.0002    1.0926   
    11. B(H  11,C   1)                1.0973 -0.000007  0.0000    1.0973   
    12. B(H  12,C   2)                1.0933  0.000054 -0.0001    1.0933   
    13. B(H  13,N   3)                1.0230 -0.000030  0.0000    1.0230   
    14. B(H  14,N   3)                1.0226  0.000094 -0.0001    1.0225   
    15. B(H  15,N   3)                1.0215 -0.000061  0.0001    1.0216   
    16. B(H  16,C   4)                1.0974 -0.000048  0.0001    1.0975   
    17. B(H  17,C   4)                1.0979 -0.000013  0.0000    1.0979   
    18. B(H  18,C   6)                1.0666 -0.000019  0.0000    1.0667   
    19. A(C   1,C   0,H   8)          111.52 -0.000145    0.03    111.55   
    20. A(C   1,C   0,H   7)          110.26  0.000129   -0.03    110.23   
    21. A(C   1,C   0,H   9)          113.51  0.000112   -0.02    113.48   
    22. A(H   7,C   0,H   9)          105.57 -0.000077    0.00    105.57   
    23. A(H   8,C   0,H   9)          108.36 -0.000018    0.01    108.37   
    24. A(H   7,C   0,H   8)          107.29 -0.000003    0.00    107.29   
    25. A(C   0,C   1,H  10)          110.01  0.000105   -0.01    110.00   
    26. A(C   2,C   1,H  10)          105.86  0.000063    0.01    105.86   
    27. A(C   0,C   1,H  11)          111.08  0.000167   -0.04    111.04   
    28. A(H  10,C   1,H  11)          105.79 -0.000065   -0.00    105.79   
    29. A(C   2,C   1,H  11)          109.31  0.000074   -0.01    109.30   
    30. A(C   0,C   1,C   2)          114.33 -0.000331    0.06    114.39   
    31. A(C   1,C   2,C   4)          114.50 -0.000040    0.01    114.51   
    32. A(C   4,C   2,H  12)          109.81  0.000031   -0.01    109.80   
    33. A(N   3,C   2,H  12)          104.89 -0.000026    0.01    104.89   
    34. A(C   1,C   2,H  12)          110.36 -0.000024    0.02    110.38   
    35. A(N   3,C   2,C   4)          108.02  0.000071   -0.03    107.99   
    36. A(C   1,C   2,N   3)          108.79 -0.000008    0.00    108.79   
    37. A(H  14,N   3,H  15)          108.41  0.000048   -0.01    108.40   
    38. A(H  13,N   3,H  15)          107.95 -0.000018    0.00    107.95   
    39. A(C   2,N   3,H  15)          111.94 -0.000025    0.00    111.95   
    40. A(H  13,N   3,H  14)          107.58 -0.000017    0.01    107.59   
    41. A(C   2,N   3,H  14)          110.14 -0.000053    0.01    110.15   
    42. A(C   2,N   3,H  13)          110.67  0.000065   -0.01    110.66   
    43. A(C   2,C   4,H  17)          109.74 -0.000010    0.00    109.74   
    44. A(C   5,C   4,H  16)          109.00  0.000085   -0.02    108.98   
    45. A(C   2,C   4,H  16)          110.29  0.000112   -0.02    110.27   
    46. A(C   2,C   4,C   5)          110.96 -0.000256    0.04    111.00   
    47. A(H  16,C   4,H  17)          107.09 -0.000024   -0.00    107.09   
    48. A(C   5,C   4,H  17)          109.68  0.000104   -0.01    109.67   
    49. L(C   4,C   5,C   6,C   2, 2) 179.19 -0.000052    0.01    179.20   
    50. L(C   4,C   5,C   6,C   2, 1) 179.53 -0.000032    0.00    179.53   
    51. L(C   5,C   6,H  18, 2)       179.35  0.000055   -0.01    179.34   
    52. L(C   5,C   6,H  18, 1)       179.81  0.000089   -0.01    179.80   
    53. D(H  10,C   1,C   0,H   9)    173.14  0.000084   -0.02    173.11   
    54. D(H  11,C   1,C   0,H   9)     56.34 -0.000001    0.01     56.35   
    55. D(H  11,C   1,C   0,H   8)    179.07 -0.000053    0.04    179.11   
    56. D(H  10,C   1,C   0,H   7)     54.94  0.000020    0.01     54.95   
    57. D(C   2,C   1,C   0,H   9)    -67.93  0.000020    0.01    -67.92   
    58. D(H  10,C   1,C   0,H   8)    -64.14  0.000032    0.00    -64.13   
    59. D(C   2,C   1,C   0,H   8)     54.80 -0.000031    0.04     54.84   
    60. D(C   2,C   1,C   0,H   7)    173.88 -0.000044    0.05    173.92   
    61. D(H  11,C   1,C   0,H   7)    -61.85 -0.000065    0.04    -61.81   
    62. D(C   4,C   2,C   1,H  10)    -56.64  0.000028   -0.05    -56.69   
    63. D(N   3,C   2,C   1,H  11)    -64.04 -0.000039   -0.03    -64.07   
    64. D(N   3,C   2,C   1,H  10)   -177.58 -0.000030   -0.02   -177.60   
    65. D(N   3,C   2,C   1,C   0)     61.17 -0.000006   -0.04     61.12   
    66. D(C   4,C   2,C   1,H  11)     56.89  0.000019   -0.06     56.83   
    67. D(H  12,C   2,C   1,H  11)   -178.61  0.000010   -0.05   -178.66   
    68. D(H  12,C   2,C   1,H  10)     67.86  0.000019   -0.04     67.82   
    69. D(H  12,C   2,C   1,C   0)    -53.40  0.000043   -0.07    -53.46   
    70. D(C   4,C   2,C   1,C   0)   -177.90  0.000052   -0.08   -177.97   
    71. D(H  15,N   3,C   2,C   4)     60.08  0.000021   -0.00     60.08   
    72. D(H  15,N   3,C   2,C   1)   -175.08  0.000012   -0.01   -175.09   
    73. D(H  14,N   3,C   2,H  12)     63.69 -0.000026    0.01     63.70   
    74. D(H  14,N   3,C   2,C   4)   -179.23  0.000029   -0.01   -179.24   
    75. D(H  14,N   3,C   2,C   1)    -54.39  0.000020   -0.02    -54.41   
    76. D(H  13,N   3,C   2,H  12)   -177.47 -0.000040    0.02   -177.45   
    77. D(H  13,N   3,C   2,C   4)    -60.39  0.000015   -0.00    -60.39   
    78. D(H  15,N   3,C   2,H  12)    -57.00 -0.000034    0.02    -56.98   
    79. D(H  13,N   3,C   2,C   1)     64.45  0.000006   -0.01     64.44   
    80. D(H  16,C   4,C   2,C   1)   -173.32 -0.000014   -0.03   -173.35   
    81. D(C   5,C   4,C   2,H  12)    -58.99  0.000011   -0.05    -59.04   
    82. D(C   5,C   4,C   2,N   3)   -172.84 -0.000012   -0.04   -172.88   
    83. D(C   5,C   4,C   2,C   1)     65.80 -0.000027   -0.02     65.78   
    84. D(H  17,C   4,C   2,H  12)    179.64  0.000055   -0.07    179.57   
    85. D(H  17,C   4,C   2,N   3)     65.80  0.000032   -0.06     65.74   
    86. D(H  17,C   4,C   2,C   1)    -55.57  0.000017   -0.04    -55.61   
    87. D(H  16,C   4,C   2,H  12)     61.89  0.000024   -0.06     61.83   
    88. D(H  16,C   4,C   2,N   3)    -51.95  0.000001   -0.05    -52.00   
    ----------------------------------------------------------------------------

         *************************************************************
         *                GEOMETRY OPTIMIZATION CYCLE   2            *
         *************************************************************
---------------------------------
CARTESIAN COORDINATES (ANGSTROEM)
---------------------------------
  C      2.560500    0.000296    0.508940
  C      1.219795    0.485244   -0.019464
  C      0.019676   -0.230028    0.568244
  N     -0.000381    0.000103    2.067084
  C     -1.325847    0.221137    0.003750
  C     -1.442186   -0.123074   -1.400110
  C     -1.533391   -0.420063   -2.557162
  H      3.375302    0.480813   -0.032859
  H      2.676375   -1.078791    0.379763
  H      2.726951    0.241727    1.565365
  H      1.163627    0.325458   -1.098807
  H      1.105815    1.566529    0.128611
  H      0.126309   -1.311791    0.451451
  H     -0.140659    0.991210    2.278275
  H      0.892784   -0.280089    2.478512
  H     -0.745804   -0.527874    2.524515
  H     -2.147764   -0.251515    0.556451
  H     -1.435255    1.306478    0.128433
  H     -1.626572   -0.680679   -3.587304

----------------------------
CARTESIAN COORDINATES (A.U.)
----------------------------
  NO LB      ZA    FRAG    MASS        X           Y           Z
   0 C     6.0000    0    12.011          4.838643054496218          0.000559364404167          0.961756347859155
   1 C     6.0000    0    12.011          2.305078890423247          0.916978731846230         -0.036781393911035
   2 C     6.0000    0    12.011          0.037181575693154         -0.434689846960901          1.073825293123307
   3 N     7.0000    0    14.007         -0.000719225062248          0.000193873342862          3.906223593322058
   4 C     6.0000    0    12.011         -2.505487230026574          0.417889006507803          0.007086830156667
   5 C     6.0000    0    12.011         -2.725335632326173         -0.232575577480542         -2.645825016397366
   6 C     6.0000    0    12.011         -2.897689446536527         -0.793803728970535         -4.832335366530705
   7 H     1.0000    0     1.008          6.378395668893899          0.908604822148141         -0.062094731822886
   8 H     1.0000    0     1.008          5.057615152386518         -2.038619923770493          0.717648935920886
   9 H     1.0000    0     1.008          5.153190535631039          0.456797193117426          2.958110222707137
  10 H     1.0000    0     1.008          2.198936174473073          0.615026461873716         -2.076444193611081
  11 H     1.0000    0     1.008          2.089687937086075          2.960311306522792          0.243040263383936
  12 H     1.0000    0     1.008          0.238689686545694         -2.478924817693156          0.853117859642878
  13 H     1.0000    0     1.008         -0.265806392113688          1.873114799168305          4.305315086947942
  14 H     1.0000    0     1.008          1.687117097957431         -0.529291828824378          4.683708611652518
  15 H     1.0000    0     1.008         -1.409364736187544         -0.997538133452157          4.770642079327184
  16 H     1.0000    0     1.008         -4.058685961919651         -0.475294207068246          1.051539227341244
  17 H     1.0000    0     1.008         -2.712238345895074          2.468885030335031          0.242703705692859
  18 H     1.0000    0     1.008         -3.073775687507106         -1.286297437814809         -6.779021655850094

--------------------------------
INTERNAL COORDINATES (ANGSTROEM)
--------------------------------
 C      0   0   0   0.000000     0.000     0.000
 C      1   0   0   1.520485     0.000     0.000
 C      2   1   0   1.515685   114.388     0.000
 N      3   2   1   1.516537   108.789    61.123
 C      3   2   1   1.527296   114.510   182.028
 C      5   3   2   1.450117   111.000    65.778
 C      6   5   3   1.198036   179.339    45.466
 H      1   2   3   1.090112   110.228   173.923
 H      1   2   3   1.092951   111.550    54.840
 H      1   2   3   1.096371   113.484   292.083
 H      2   1   3   1.092551   109.999   241.028
 H      2   1   3   1.097313   111.038   124.271
 H      3   2   1   1.093262   110.383   306.538
 H      4   3   2   1.023021   110.662    64.438
 H      4   3   2   1.022508   110.154   305.594
 H      4   3   2   1.021596   111.948   184.908
 H      5   3   2   1.097463   110.269   186.651
 H      5   3   2   1.097943   109.745   304.390
 H      7   6   5   1.066675   179.325   127.926

---------------------------
INTERNAL COORDINATES (A.U.)
---------------------------
 C      0   0   0   0.000000     0.000     0.000
 C      1   0   0   2.873299     0.000     0.000
 C      2   1   0   2.864230   114.388     0.000
 N      3   2   1   2.865840   108.789    61.123
 C      3   2   1   2.886172   114.510   182.028
 C      5   3   2   2.740325   111.000    65.778
 C      6   5   3   2.263959   179.339    45.466
 H      1   2   3   2.060014   110.228   173.923
 H      1   2   3   2.065379   111.550    54.840
 H      1   2   3   2.071840   113.484   292.083
 H      2   1   3   2.064622   109.999   241.028
 H      2   1   3   2.073620   111.038   124.271
 H      3   2   1   2.065966   110.383   306.538
 H      4   3   2   1.933230   110.662    64.438
 H      4   3   2   1.932260   110.154   305.594
 H      4   3   2   1.930536   111.948   184.908
 H      5   3   2   2.073905   110.269   186.651
 H      5   3   2   2.074812   109.745   304.390
 H      7   6   5   2.015724   179.325   127.926



           ************************************************************
           *        Program running with 8 parallel MPI-processes     *
           *              working on a common directory               *
           ************************************************************
           ************************************************************
           *              Shut down parallel processing               *
           ************************************************************


           ************************************************************
           *        Program running with 8 parallel MPI-processes     *
           *              working on a common directory               *
           ************************************************************

Diagonalization of the overlap matrix:
Smallest eigenvalue                        ... 1.812e-05
Time for diagonalization                   ...    0.195 sec
Threshold for overlap eigenvalues          ... 1.000e-08
Number of eigenvalues below threshold      ... 0
Time for construction of square roots      ...    0.024 sec
Total time needed                          ...    0.220 sec

-------------------
DFT GRID GENERATION
-------------------

General Integration Accuracy     IntAcc      ...  4.340
Radial Grid Type                 RadialGrid  ... Gauss-Chebyshev
Angular Grid (max. acc.)         AngularGrid ... Lebedev-194
Angular grid pruning method      GridPruning ... 3 (G Style)
Weight generation scheme         WeightScheme... Becke
Basis function cutoff            BFCut       ...    1.0000e-11
Integration weight cutoff        WCut        ...    1.0000e-14
Grids for H and He will be reduced by one unit

# of grid points (after initial pruning)     ...  41338 (   0.0 sec)
# of grid points (after weights+screening)   ...  37694 (   0.1 sec)
nearest neighbour list constructed           ...    0.0 sec
Grid point re-assignment to atoms done       ...    0.0 sec
Grid point division into batches done        ...    0.1 sec
Reduced shell lists constructed in    0.1 sec

Total number of grid points                  ...    37694
Total number of batches                      ...      598
Average number of points per batch           ...       63
Average number of grid points per atom       ...     1984
Average number of shells per batch           ...   100.99 (80.79%)
Average number of basis functions per batch  ...   239.33 (82.81%)
Average number of large shells per batch     ...    83.49 (82.67%)
Average number of large basis fcns per batch ...   196.38 (82.06%)
Maximum spatial batch extension              ...   2.27,  2.02,  2.20 au
Average spatial batch extension              ...   0.14,  0.14,  0.14 au

Time for grid setup =    0.411 sec

--------------
SCF ITERATIONS
--------------
ITER       Energy         Delta-E        Max-DP      RMS-DP      [F,P]     Damp
               ***  Starting incremental Fock matrix formation  ***
                      *** Initiating the SOSCF procedure ***
                      *** Re-Reading the Fockian *** 
                      *** Removing any level shift *** 
ITER      Energy       Delta-E        Grad      Rot      Max-DP    RMS-DP
  0   -290.05598024 -290.0559802403  0.000559  0.000559  0.000418  0.000009
               *** Restarting incremental Fock matrix formation ***
  1   -290.05598270  -0.0000024582  0.000040  0.000070  0.000113  0.000003
  2   -290.05598289  -0.0000001959  0.000016  0.000049  0.000045  0.000001
  3   -290.05598289   0.0000000094  0.000036  0.000040  0.000028  0.000001
  4   -290.05598290  -0.0000000177  0.000007  0.000011  0.000013  0.000000
  5   -290.05598290   0.0000000003  0.000005  0.000004  0.000008  0.000000
                 **** Energy Check signals convergence ****
              ***Rediagonalizing the Fockian in SOSCF/NRSCF***

               *****************************************************
               *                     SUCCESS                       *
               *           SCF CONVERGED AFTER   6 CYCLES          *
               *****************************************************

Setting up the final grid:

General Integration Accuracy     IntAcc      ...  5.010
Radial Grid Type                 RadialGrid  ... Gauss-Chebyshev
Angular Grid (max. acc.)         AngularGrid ... Lebedev-434
Angular grid pruning method      GridPruning ... 3 (G Style)
Weight generation scheme         WeightScheme... Becke
Basis function cutoff            BFCut       ...    1.0000e-11
Integration weight cutoff        WCut        ...    1.0000e-14
Grids for H and He will be reduced by one unit

# of grid points (after initial pruning)     ... 155082 (   0.0 sec)
# of grid points (after weights+screening)   ... 139724 (   2.0 sec)
nearest neighbour list constructed           ...    0.0 sec
Grid point re-assignment to atoms done       ...    0.0 sec
Grid point division into batches done        ...    1.0 sec
Reduced shell lists constructed in    1.4 sec

Total number of grid points                  ...   139724
Total number of batches                      ...     2194
Average number of points per batch           ...       63
Average number of grid points per atom       ...     7354
Average number of shells per batch           ...   100.03 (80.02%)
Average number of basis functions per batch  ...   237.18 (82.07%)
Average number of large shells per batch     ...    81.57 (81.55%)
Average number of large basis fcns per batch ...   191.89 (80.90%)
Maximum spatial batch extension              ...   2.34,  2.10,  1.95 au
Average spatial batch extension              ...   0.10,  0.10,  0.10 au

Final grid set up in    4.0 sec
Final integration                            ... done (   1.0 sec)
Change in XC energy                          ...     0.000659753
Integrated number of electrons               ...    53.999979220
Previous integrated no of electrons          ...    54.002278939
Total Energy       :         -290.05532315 Eh           -7892.80661 eV
  Last Energy change         ...   -1.0305e-09  Tolerance :   1.0000e-08
  Last MAX-Density change    ...    5.8506e-06  Tolerance :   1.0000e-07
             **** THE GBW FILE WAS UPDATED (2375_+.gbw) ****
             **** DENSITY FILE WAS UPDATED (2375_+.scfp.tmp) ****
             **** ENERGY FILE WAS UPDATED (2375_+.en.tmp) ****
Total SCF time: 0 days 0 hours 0 min 42 sec 
           ************************************************************
           *              Shut down parallel processing               *
           ************************************************************

-------------------------   --------------------
FINAL SINGLE POINT ENERGY      -290.055323150875
-------------------------   --------------------



           ************************************************************
           *        Program running with 8 parallel MPI-processes     *
           *              working on a common directory               *
           ************************************************************
------------------------------------------------------------------------------
                         ORCA SCF GRADIENT CALCULATION
------------------------------------------------------------------------------

Gradient of the Kohn-Sham DFT energy:
Kohn-Sham wavefunction type      ... RKS
Hartree-Fock exchange scaling    ...    0.250
Number of operators              ...    1
Number of atoms                  ...   19
Basis set dimensions             ...  289
Integral neglect threshold       ... 2.5e-11
Integral primitive cutoff        ... 2.5e-12

Nuclear repulsion gradient       ... done
One Electron Gradient            ... done
Pre-screening matrix             ... done
Starting the two electron gradient:
Two electron gradient done
Exchange-correlation gradient    ... done

------------------
CARTESIAN GRADIENT
------------------

   1   C   :   -0.000109692    0.000116795   -0.000031950
   2   C   :    0.000149030    0.000019491   -0.000058553
   3   C   :   -0.000108269   -0.000005269    0.000162265
   4   N   :   -0.000004125   -0.000045619   -0.000119109
   5   C   :   -0.000063068   -0.000106200   -0.000012310
   6   C   :    0.000136259    0.000029354    0.000010200
   7   C   :   -0.000119976    0.000086923   -0.000015834
   8   H   :    0.000048192   -0.000045229    0.000037976
   9   H   :   -0.000036474   -0.000021921   -0.000002954
  10   H   :    0.000046758   -0.000032359    0.000005830
  11   H   :   -0.000024176    0.000018549    0.000007052
  12   H   :   -0.000049538   -0.000003985   -0.000013157
  13   H   :    0.000077231    0.000001344   -0.000022397
  14   H   :    0.000007501    0.000001131    0.000041709
  15   H   :    0.000018801    0.000016094   -0.000017302
  16   H   :   -0.000012242    0.000005210   -0.000001743
  17   H   :   -0.000016024    0.000043696    0.000005046
  18   H   :    0.000007768    0.000000280    0.000011215
  19   H   :    0.000052043   -0.000078283    0.000014016

Norm of the cartesian gradient     ...    0.000446659
RMS gradient                       ...    0.000059161
MAX gradient                       ...    0.000162265

-------
TIMINGS
-------

Total SCF gradient time            ...       35.798 sec

One electron gradient       ....       0.152 sec  (  0.4%)
Prescreening matrices       ....       0.359 sec  (  1.0%)
Two electron gradient       ....      30.429 sec  ( 85.0%)
XC gradient                 ....       4.191 sec  ( 11.7%)
           ************************************************************
           *              Shut down parallel processing               *
           ************************************************************
------------------------------------------------------------------------------
                         ORCA GEOMETRY RELAXATION STEP
------------------------------------------------------------------------------

Reading the OPT-File                    .... done
Getting information on internals        .... done
Copying old internal coords+grads       .... done
Making the new internal coordinates     .... (new redundants).... done
Validating the new internal coordinates .... (new redundants).... done
Calculating the B-matrix                .... done
Calculating the G,G- and P matrices     .... done
Transforming gradient to internals      .... done
Projecting the internal gradient        .... done
Number of atoms                         ....  19
Number of internal coordinates          ....  88
Current Energy                          ....  -290.055323151 Eh
Current gradient norm                   ....     0.000446659 Eh/bohr
Maximum allowed component of the step   ....  0.300
Current trust radius                    ....  0.300
Updating the Hessian (BFGS)             .... done
Forming the augmented Hessian           .... done
Diagonalizing the augmented Hessian     .... done
Last element of RFO vector              ....  0.999969917
Lowest eigenvalues of augmented Hessian:
 -0.000001410  0.009783192  0.011423420  0.011799243  0.012059692
Length of the computed step             ....  0.007756885
The final length of the internal step   ....  0.007756885
Converting the step to cartesian space:
 Initial RMS(Int)=    0.0008268868
Transforming coordinates:
 Iter   0:  RMS(Cart)=    0.0024763405 RMS(Int)=    0.0008262219
 Iter   1:  RMS(Cart)=    0.0000224072 RMS(Int)=    0.0000079827
 Iter   2:  RMS(Cart)=    0.0000106891 RMS(Int)=    0.0000038489
 Iter   3:  RMS(Cart)=    0.0000052261 RMS(Int)=    0.0000018972
 Iter   4:  RMS(Cart)=    0.0000025533 RMS(Int)=    0.0000009357
 Iter   5:  RMS(Cart)=    0.0000012468 RMS(Int)=    0.0000004618
 Iter   6:  RMS(Cart)=    0.0000006084 RMS(Int)=    0.0000002281
 Iter   7:  RMS(Cart)=    0.0000002967 RMS(Int)=    0.0000001128
 Iter   8:  RMS(Cart)=    0.0000001446 RMS(Int)=    0.0000000558
 Iter   9:  RMS(Cart)=    0.0000000704 RMS(Int)=    0.0000000276
done
Storing new coordinates                 .... done

                                .--------------------.
          ----------------------|Geometry convergence|---------------------
          Item                value                 Tolerance   Converged
          -----------------------------------------------------------------
          Energy change      -0.00000151            0.00000100      NO
          RMS gradient        0.00003964            0.00003000      NO
          MAX gradient        0.00014492            0.00010000      NO
          RMS step            0.00082689            0.00060000      NO
          MAX step            0.00221982            0.00100000      NO
          ....................................................
          Max(Bonds)      0.0004      Max(Angles)    0.06
          Max(Dihed)        0.13      Max(Improp)    0.00
          -----------------------------------------------------------------

The optimization has not yet converged - more geometry cycles are needed


    ---------------------------------------------------------------------------
                         Redundant Internal Coordinates
                            (Angstroem and degrees)

        Definition                    Value    dE/dq     Step     New-Value
    ----------------------------------------------------------------------------
     1. B(C   1,C   0)                1.5205 -0.000044  0.0002    1.5207   
     2. B(C   2,C   1)                1.5157  0.000060 -0.0001    1.5156   
     3. B(N   3,C   2)                1.5165 -0.000098  0.0004    1.5169   
     4. B(C   4,C   2)                1.5273 -0.000007  0.0001    1.5274   
     5. B(C   5,C   4)                1.4501 -0.000024  0.0001    1.4502   
     6. B(C   6,C   5)                1.1980  0.000004 -0.0000    1.1980   
     7. B(H   7,C   0)                1.0901 -0.000004  0.0000    1.0901   
     8. B(H   8,C   0)                1.0930  0.000021 -0.0001    1.0928   
     9. B(H   9,C   0)                1.0964  0.000005 -0.0000    1.0964   
    10. B(H  10,C   1)                1.0926 -0.000008  0.0001    1.0926   
    11. B(H  11,C   1)                1.0973 -0.000002  0.0000    1.0973   
    12. B(H  12,C   2)                1.0933  0.000008 -0.0000    1.0932   
    13. B(H  13,N   3)                1.0230  0.000010 -0.0000    1.0230   
    14. B(H  14,N   3)                1.0225  0.000004 -0.0000    1.0225   
    15. B(H  15,N   3)                1.0216  0.000005  0.0000    1.0216   
    16. B(H  16,C   4)                1.0975 -0.000005  0.0000    1.0975   
    17. B(H  17,C   4)                1.0979  0.000002 -0.0000    1.0979   
    18. B(H  18,C   6)                1.0667  0.000001  0.0000    1.0667   
    19. A(C   1,C   0,H   8)          111.55 -0.000093    0.05    111.60   
    20. A(C   1,C   0,H   7)          110.23  0.000114   -0.05    110.18   
    21. A(C   1,C   0,H   9)          113.48  0.000075   -0.03    113.45   
    22. A(H   7,C   0,H   9)          105.57 -0.000068    0.01    105.57   
    23. A(H   8,C   0,H   9)          108.37 -0.000014    0.02    108.40   
    24. A(H   7,C   0,H   8)          107.29 -0.000018    0.01    107.30   
    25. A(C   0,C   1,H  10)          110.00  0.000041   -0.01    109.99   
    26. A(C   2,C   1,H  10)          105.86  0.000032    0.01    105.87   
    27. A(C   0,C   1,H  11)          111.04  0.000089   -0.05    110.99   
    28. A(H  10,C   1,H  11)          105.79 -0.000032    0.00    105.79   
    29. A(C   2,C   1,H  11)          109.30  0.000020   -0.01    109.29   
    30. A(C   0,C   1,C   2)          114.39 -0.000145    0.06    114.45   
    31. A(C   1,C   2,C   4)          114.51 -0.000013    0.00    114.51   
    32. A(C   4,C   2,H  12)          109.80  0.000015   -0.01    109.79   
    33. A(N   3,C   2,H  12)          104.89 -0.000006    0.00    104.90   
    34. A(C   1,C   2,H  12)          110.38 -0.000027    0.04    110.43   
    35. A(N   3,C   2,C   4)          107.99  0.000033   -0.04    107.95   
    36. A(C   1,C   2,N   3)          108.79 -0.000000   -0.00    108.78   
    37. A(H  14,N   3,H  15)          108.40  0.000021   -0.01    108.39   
    38. A(H  13,N   3,H  15)          107.95 -0.000022    0.00    107.96   
    39. A(C   2,N   3,H  15)          111.95 -0.000004    0.00    111.95   
    40. A(H  13,N   3,H  14)          107.59 -0.000020    0.01    107.60   
    41. A(C   2,N   3,H  14)          110.15 -0.000032    0.01    110.17   
    42. A(C   2,N   3,H  13)          110.66  0.000055   -0.02    110.64   
    43. A(C   2,C   4,H  17)          109.74 -0.000011    0.01    109.75   
    44. A(C   5,C   4,H  16)          108.98  0.000033   -0.02    108.96   
    45. A(C   2,C   4,H  16)          110.27  0.000068   -0.03    110.24   
    46. A(C   2,C   4,C   5)          111.00 -0.000114    0.04    111.04   
    47. A(H  16,C   4,H  17)          107.09 -0.000023    0.01    107.10   
    48. A(C   5,C   4,H  17)          109.67  0.000051   -0.01    109.66   
    49. L(C   4,C   5,C   6,C   2, 2) 179.20 -0.000049    0.01    179.21   
    50. L(C   4,C   5,C   6,C   2, 1) 179.53 -0.000032    0.01    179.54   
    51. L(C   5,C   6,H  18, 2)       179.34  0.000052   -0.02    179.32   
    52. L(C   5,C   6,H  18, 1)       179.80  0.000082   -0.02    179.78   
    53. D(H  10,C   1,C   0,H   9)    173.11  0.000043   -0.02    173.09   
    54. D(H  11,C   1,C   0,H   9)     56.35  0.000004    0.02     56.37   
    55. D(H  11,C   1,C   0,H   8)    179.11 -0.000030    0.06    179.17   
    56. D(H  10,C   1,C   0,H   7)     54.95  0.000002    0.03     54.98   
    57. D(C   2,C   1,C   0,H   9)    -67.92  0.000017    0.02    -67.90   
    58. D(H  10,C   1,C   0,H   8)    -64.13  0.000009    0.02    -64.11   
    59. D(C   2,C   1,C   0,H   8)     54.84 -0.000017    0.06     54.90   
    60. D(C   2,C   1,C   0,H   7)    173.92 -0.000024    0.07    173.99   
    61. D(H  11,C   1,C   0,H   7)    -61.81 -0.000037    0.07    -61.74   
    62. D(C   4,C   2,C   1,H  10)    -56.69  0.000023   -0.10    -56.79   
    63. D(N   3,C   2,C   1,H  11)    -64.07 -0.000022   -0.05    -64.12   
    64. D(N   3,C   2,C   1,H  10)   -177.60 -0.000011   -0.05   -177.65   
    65. D(N   3,C   2,C   1,C   0)     61.12  0.000004   -0.08     61.05   
    66. D(C   4,C   2,C   1,H  11)     56.83  0.000011   -0.10     56.73   
    67. D(H  12,C   2,C   1,H  11)   -178.66 -0.000001   -0.08   -178.73   
    68. D(H  12,C   2,C   1,H  10)     67.82  0.000011   -0.08     67.74   
    69. D(H  12,C   2,C   1,C   0)    -53.46  0.000025   -0.10    -53.56   
    70. D(C   4,C   2,C   1,C   0)   -177.97  0.000037   -0.13   -178.10   
    71. D(H  15,N   3,C   2,C   4)     60.08  0.000011   -0.01     60.07   
    72. D(H  15,N   3,C   2,C   1)   -175.09  0.000015   -0.03   -175.12   
    73. D(H  14,N   3,C   2,H  12)     63.70 -0.000017    0.02     63.72   
    74. D(H  14,N   3,C   2,C   4)   -179.24  0.000013   -0.01   -179.25   
    75. D(H  14,N   3,C   2,C   1)    -54.41  0.000017   -0.03    -54.44   
    76. D(H  13,N   3,C   2,H  12)   -177.45 -0.000027    0.03   -177.42   
    77. D(H  13,N   3,C   2,C   4)    -60.39  0.000003    0.00    -60.39   
    78. D(H  15,N   3,C   2,H  12)    -56.98 -0.000019    0.02    -56.96   
    79. D(H  13,N   3,C   2,C   1)     64.44  0.000007   -0.02     64.42   
    80. D(H  16,C   4,C   2,C   1)   -173.35 -0.000006   -0.07   -173.42   
    81. D(C   5,C   4,C   2,H  12)    -59.04  0.000016   -0.10    -59.14   
    82. D(C   5,C   4,C   2,N   3)   -172.88 -0.000003   -0.08   -172.96   
    83. D(C   5,C   4,C   2,C   1)     65.78 -0.000018   -0.05     65.73   
    84. D(H  17,C   4,C   2,H  12)    179.57  0.000034   -0.12    179.45   
    85. D(H  17,C   4,C   2,N   3)     65.74  0.000015   -0.10     65.63   
    86. D(H  17,C   4,C   2,C   1)    -55.61  0.000000   -0.07    -55.68   
    87. D(H  16,C   4,C   2,H  12)     61.83  0.000028   -0.12     61.71   
    88. D(H  16,C   4,C   2,N   3)    -52.00  0.000009   -0.10    -52.10   
    ----------------------------------------------------------------------------

         *************************************************************
         *                GEOMETRY OPTIMIZATION CYCLE   3            *
         *************************************************************
---------------------------------
CARTESIAN COORDINATES (ANGSTROEM)
---------------------------------
  C      2.561458    0.000726    0.509829
  C      1.220173    0.483174   -0.019890
  C      0.019840   -0.231267    0.568064
  N     -0.000511    0.000351    2.067053
  C     -1.325610    0.220446    0.003669
  C     -1.442860   -0.122514   -1.400516
  C     -1.534904   -0.418247   -2.557817
  H      3.375213    0.482485   -0.032509
  H      2.679788   -1.078166    0.382239
  H      2.726726    0.244409    1.565910
  H      1.164898    0.321685   -1.099091
  H      1.105829    1.564667    0.126429
  H      0.125352   -1.313204    0.452250
  H     -0.140290    0.991797    2.276905
  H      0.892189   -0.280064    2.479238
  H     -0.746452   -0.526668    2.524760
  H     -2.147287   -0.252889    0.556204
  H     -1.435155    1.305670    0.129225
  H     -1.629121   -0.677300   -3.588263

----------------------------
CARTESIAN COORDINATES (A.U.)
----------------------------
  NO LB      ZA    FRAG    MASS        X           Y           Z
   0 C     6.0000    0    12.011          4.840454177231638          0.001372752906067          0.963437119328847
   1 C     6.0000    0    12.011          2.305791996453939          0.913065695572353         -0.037587573854208
   2 C     6.0000    0    12.011          0.037492495469279         -0.437031084797288          1.073485110270074
   3 N     7.0000    0    14.007         -0.000966070869619          0.000663656894416          3.906164740694062
   4 C     6.0000    0    12.011         -2.505039728621907          0.416583216024287          0.006932490619159
   5 C     6.0000    0    12.011         -2.726610146993075         -0.231518640061578         -2.646590969330264
   6 C     6.0000    0    12.011         -2.900548347676727         -0.790371975244875         -4.833573574354459
   7 H     1.0000    0     1.008          6.378228504384110          0.911763921974352         -0.061433965999171
   8 H     1.0000    0     1.008          5.064065006487199         -2.037439195592565          0.722326129690496
   9 H     1.0000    0     1.008          5.152765814785281          0.461866139264072          2.959140607315709
  10 H     1.0000    0     1.008          2.201338003537276          0.607897439676802         -2.076981700745776
  11 H     1.0000    0     1.008          2.089714323827855          2.956792607499456          0.238916584475662
  12 H     1.0000    0     1.008          0.236881199686055         -2.481595227189842          0.854628492402403
  13 H     1.0000    0     1.008         -0.265110588272087          1.874223892309865          4.302727123521281
  14 H     1.0000    0     1.008          1.685993538513517         -0.529244944468998          4.685081154222329
  15 H     1.0000    0     1.008         -1.410589990374048         -0.995259134935438          4.771105024872559
  16 H     1.0000    0     1.008         -4.057784212859745         -0.477891465723584          1.051074019337644
  17 H     1.0000    0     1.008         -2.712049499153978          2.467359245243095          0.244199155055004
  18 H     1.0000    0     1.008         -3.078593359543198         -1.279911812119342         -6.780834268566747

--------------------------------
INTERNAL COORDINATES (ANGSTROEM)
--------------------------------
 C      0   0   0   0.000000     0.000     0.000
 C      1   0   0   1.520659     0.000     0.000
 C      2   1   0   1.515557   114.449     0.000
 N      3   2   1   1.516915   108.784    61.046
 C      3   2   1   1.527358   114.513   181.901
 C      5   3   2   1.450208   111.043    65.726
 C      6   5   3   1.198030   179.350    45.497
 H      1   2   3   1.090146   110.176   173.993
 H      1   2   3   1.092836   111.595    54.903
 H      1   2   3   1.096358   113.453   292.104
 H      2   1   3   1.092615   109.987   240.988
 H      2   1   3   1.097321   110.986   124.268
 H      3   2   1   1.093221   110.426   306.435
 H      4   3   2   1.023005   110.642    64.417
 H      4   3   2   1.022469   110.168   305.561
 H      4   3   2   1.021603   111.948   184.879
 H      5   3   2   1.097495   110.238   186.585
 H      5   3   2   1.097941   109.752   304.317
 H      7   6   5   1.066679   179.303   129.413

---------------------------
INTERNAL COORDINATES (A.U.)
---------------------------
 C      0   0   0   0.000000     0.000     0.000
 C      1   0   0   2.873630     0.000     0.000
 C      2   1   0   2.863988   114.449     0.000
 N      3   2   1   2.866554   108.784    61.046
 C      3   2   1   2.886289   114.513   181.901
 C      5   3   2   2.740496   111.043    65.726
 C      6   5   3   2.263949   179.350    45.497
 H      1   2   3   2.060078   110.176   173.993
 H      1   2   3   2.065161   111.595    54.903
 H      1   2   3   2.071817   113.453   292.104
 H      2   1   3   2.064744   109.987   240.988
 H      2   1   3   2.073635   110.986   124.268
 H      3   2   1   2.065889   110.426   306.435
 H      4   3   2   1.933200   110.642    64.417
 H      4   3   2   1.932187   110.168   305.561
 H      4   3   2   1.930550   111.948   184.879
 H      5   3   2   2.073965   110.238   186.585
 H      5   3   2   2.074809   109.752   304.317
 H      7   6   5   2.015732   179.303   129.413



           ************************************************************
           *        Program running with 8 parallel MPI-processes     *
           *              working on a common directory               *
           ************************************************************
           ************************************************************
           *              Shut down parallel processing               *
           ************************************************************


           ************************************************************
           *        Program running with 8 parallel MPI-processes     *
           *              working on a common directory               *
           ************************************************************

Diagonalization of the overlap matrix:
Smallest eigenvalue                        ... 1.811e-05
Time for diagonalization                   ...    0.349 sec
Threshold for overlap eigenvalues          ... 1.000e-08
Number of eigenvalues below threshold      ... 0
Time for construction of square roots      ...    0.312 sec
Total time needed                          ...    0.662 sec

-------------------
DFT GRID GENERATION
-------------------

General Integration Accuracy     IntAcc      ...  4.340
Radial Grid Type                 RadialGrid  ... Gauss-Chebyshev
Angular Grid (max. acc.)         AngularGrid ... Lebedev-194
Angular grid pruning method      GridPruning ... 3 (G Style)
Weight generation scheme         WeightScheme... Becke
Basis function cutoff            BFCut       ...    1.0000e-11
Integration weight cutoff        WCut        ...    1.0000e-14
Grids for H and He will be reduced by one unit

# of grid points (after initial pruning)     ...  41338 (   0.0 sec)
# of grid points (after weights+screening)   ...  37692 (   0.2 sec)
nearest neighbour list constructed           ...    0.0 sec
Grid point re-assignment to atoms done       ...    0.0 sec
Grid point division into batches done        ...    0.1 sec
Reduced shell lists constructed in    0.1 sec

Total number of grid points                  ...    37692
Total number of batches                      ...      599
Average number of points per batch           ...       62
Average number of grid points per atom       ...     1984
Average number of shells per batch           ...   101.00 (80.80%)
Average number of basis functions per batch  ...   239.32 (82.81%)
Average number of large shells per batch     ...    83.61 (82.78%)
Average number of large basis fcns per batch ...   196.79 (82.23%)
Maximum spatial batch extension              ...   2.16,  2.02,  2.20 au
Average spatial batch extension              ...   0.14,  0.14,  0.14 au

Time for grid setup =    1.386 sec

--------------
SCF ITERATIONS
--------------
ITER       Energy         Delta-E        Max-DP      RMS-DP      [F,P]     Damp
               ***  Starting incremental Fock matrix formation  ***
                      *** Initiating the SOSCF procedure ***
                      *** Re-Reading the Fockian *** 
                      *** Removing any level shift *** 
ITER      Energy       Delta-E        Grad      Rot      Max-DP    RMS-DP
  0   -290.05597848 -290.0559784764  0.000768  0.000768  0.000739  0.000014
               *** Restarting incremental Fock matrix formation ***
  1   -290.05598367  -0.0000051983  0.000060  0.000095  0.000134  0.000004
  2   -290.05598409  -0.0000004184  0.000011  0.000025  0.000060  0.000001
  3   -290.05598410  -0.0000000046  0.000007  0.000007  0.000013  0.000000
  4   -290.05598410  -0.0000000068  0.000003  0.000008  0.000006  0.000000
  5   -290.05598410   0.0000000000  0.000005  0.000005  0.000004  0.000000
                  ***Gradient check signals convergence***
              ***Rediagonalizing the Fockian in SOSCF/NRSCF***

               *****************************************************
               *                     SUCCESS                       *
               *           SCF CONVERGED AFTER   6 CYCLES          *
               *****************************************************

Setting up the final grid:

General Integration Accuracy     IntAcc      ...  5.010
Radial Grid Type                 RadialGrid  ... Gauss-Chebyshev
Angular Grid (max. acc.)         AngularGrid ... Lebedev-434
Angular grid pruning method      GridPruning ... 3 (G Style)
Weight generation scheme         WeightScheme... Becke
Basis function cutoff            BFCut       ...    1.0000e-11
Integration weight cutoff        WCut        ...    1.0000e-14
Grids for H and He will be reduced by one unit

# of grid points (after initial pruning)     ... 155082 (   0.0 sec)
# of grid points (after weights+screening)   ... 139726 (   0.7 sec)
nearest neighbour list constructed           ...    0.0 sec
Grid point re-assignment to atoms done       ...    0.0 sec
Grid point division into batches done        ...    1.2 sec
Reduced shell lists constructed in    1.5 sec

Total number of grid points                  ...   139726
Total number of batches                      ...     2194
Average number of points per batch           ...       63
Average number of grid points per atom       ...     7354
Average number of shells per batch           ...   100.00 (80.00%)
Average number of basis functions per batch  ...   237.15 (82.06%)
Average number of large shells per batch     ...    81.48 (81.48%)
Average number of large basis fcns per batch ...   191.67 (80.82%)
Maximum spatial batch extension              ...   2.33,  2.10,  1.97 au
Average spatial batch extension              ...   0.10,  0.10,  0.10 au

Final grid set up in    2.6 sec
Final integration                            ... done (   1.2 sec)
Change in XC energy                          ...     0.000660192
Integrated number of electrons               ...    53.999979886
Previous integrated no of electrons          ...    54.002283815
Total Energy       :         -290.05532391 Eh           -7892.80663 eV
  Last Energy change         ...   -7.8580e-10  Tolerance :   1.0000e-08
  Last MAX-Density change    ...    1.6938e-05  Tolerance :   1.0000e-07
             **** THE GBW FILE WAS UPDATED (2375_+.gbw) ****
             **** DENSITY FILE WAS UPDATED (2375_+.scfp.tmp) ****
             **** ENERGY FILE WAS UPDATED (2375_+.en.tmp) ****
Total SCF time: 0 days 0 hours 0 min 46 sec 
           ************************************************************
           *              Shut down parallel processing               *
           ************************************************************

-------------------------   --------------------
FINAL SINGLE POINT ENERGY      -290.055323913397
-------------------------   --------------------



           ************************************************************
           *        Program running with 8 parallel MPI-processes     *
           *              working on a common directory               *
           ************************************************************
------------------------------------------------------------------------------
                         ORCA SCF GRADIENT CALCULATION
------------------------------------------------------------------------------

Gradient of the Kohn-Sham DFT energy:
Kohn-Sham wavefunction type      ... RKS
Hartree-Fock exchange scaling    ...    0.250
Number of operators              ...    1
Number of atoms                  ...   19
Basis set dimensions             ...  289
Integral neglect threshold       ... 2.5e-11
Integral primitive cutoff        ... 2.5e-12

Nuclear repulsion gradient       ... done
One Electron Gradient            ... done
Pre-screening matrix             ... done
Starting the two electron gradient:
Two electron gradient done
Exchange-correlation gradient    ... done

------------------
CARTESIAN GRADIENT
------------------

   1   C   :    0.000001630   -0.000019435   -0.000020278
   2   C   :    0.000031676    0.000007285    0.000020409
   3   C   :   -0.000046287   -0.000053667    0.000022003
   4   N   :    0.000012072    0.000015183    0.000011504
   5   C   :   -0.000010714   -0.000045824    0.000026923
   6   C   :    0.000059606    0.000026635   -0.000072970
   7   C   :   -0.000102794    0.000069694   -0.000000338
   8   H   :    0.000031821   -0.000007080    0.000007699
   9   H   :   -0.000004513    0.000038284    0.000001059
  10   H   :    0.000011034    0.000003048    0.000002209
  11   H   :    0.000000669    0.000006410   -0.000031509
  12   H   :   -0.000013546   -0.000001289    0.000007730
  13   H   :    0.000021569    0.000017872   -0.000023411
  14   H   :   -0.000001149    0.000000959    0.000020167
  15   H   :   -0.000013450    0.000005269   -0.000006984
  16   H   :   -0.000003982   -0.000007600    0.000014415
  17   H   :   -0.000011652    0.000008647    0.000010012
  18   H   :   -0.000005133   -0.000000569    0.000003183
  19   H   :    0.000043144   -0.000063821    0.000008175

Norm of the cartesian gradient     ...    0.000221097
RMS gradient                       ...    0.000029285
MAX gradient                       ...    0.000102794

-------
TIMINGS
-------

Total SCF gradient time            ...       34.582 sec

One electron gradient       ....       0.159 sec  (  0.5%)
Prescreening matrices       ....       0.308 sec  (  0.9%)
Two electron gradient       ....      29.563 sec  ( 85.5%)
XC gradient                 ....       4.007 sec  ( 11.6%)
           ************************************************************
           *              Shut down parallel processing               *
           ************************************************************
------------------------------------------------------------------------------
                         ORCA GEOMETRY RELAXATION STEP
------------------------------------------------------------------------------

[...]
     18      -0.000067  -0.000036   0.029186   0.000109   0.000002   0.000025
     19      -0.000079  -0.000030   0.092895   0.000227   0.000022   0.000025
     20      -0.000186   0.000078   0.364824   0.000998   0.000100   0.000079
     21      -0.013040  -0.000978  -0.001158  -0.006997   0.204515  -0.028044
     22      -0.022468  -0.021428   0.000367  -0.004588   0.124728  -0.017627
     23      -0.041949  -0.020286  -0.000482   0.005952  -0.159181   0.025830
     24       0.007469   0.010240  -0.000154  -0.002424   0.043215   0.004289
     25       0.004021   0.006285  -0.000049   0.021833  -0.437804  -0.048898
     26      -0.013710  -0.029635  -0.000195   0.003135  -0.066747  -0.005015
     27      -0.047355  -0.029177   0.000773  -0.004302   0.110643  -0.012867
     28      -0.007765   0.016701  -0.000468  -0.008123   0.194201  -0.021630
     29       0.017072   0.005193  -0.000042  -0.033016   0.807912  -0.102279
     30      -0.007230  -0.013524  -0.002966  -0.000006  -0.003081  -0.007954
     31       0.027487  -0.023858  -0.000517   0.002795  -0.013531  -0.060175
     32      -0.000813   0.005862   0.002024   0.013816  -0.086107  -0.279306
     33       0.008648   0.001630   0.000316   0.005458  -0.007775  -0.090497
     34       0.001208   0.004192  -0.001523  -0.035502   0.054346   0.922048
     35      -0.028674   0.015896   0.000910  -0.005999   0.009003   0.133467
     36      -0.003933   0.013591  -0.006633   0.002536  -0.001758   0.015512
     37      -0.014040  -0.005205  -0.001614  -0.043348   0.002903  -0.139834
     38      -0.055042  -0.016228  -0.006776  -0.004252   0.001110  -0.016025
     39      -0.229619   0.671972   0.000555   0.003282  -0.000676  -0.003807
     40      -0.137019   0.062767   0.000617   0.003023   0.000034   0.007089
     41       0.366253   0.108219   0.001678   0.003706  -0.000166   0.005804
     42       0.270846   0.109335   0.000207  -0.002646   0.007900  -0.002064
     43       0.340170   0.591456  -0.000106   0.001532  -0.006227   0.000930
     44      -0.287511   0.123202  -0.003536   0.000928   0.011476  -0.001893
     45      -0.455941  -0.049106   0.000118   0.001764   0.002599  -0.000854
     46       0.536565  -0.241379   0.000485  -0.001925   0.000202   0.001553
     47      -0.114733  -0.293904   0.000244   0.003795   0.001226   0.001566
     48      -0.003727   0.016745   0.002919  -0.497685  -0.017905  -0.010580
     49       0.009857  -0.019311   0.016654  -0.305247  -0.010497  -0.004312
     50       0.014985   0.006435   0.037348   0.335595   0.011089   0.005570
     51      -0.016601   0.007539  -0.002489  -0.060712  -0.003116  -0.005012
     52      -0.001508  -0.001585   0.006439   0.726131   0.038762   0.028093
     53      -0.001261  -0.019450   0.040557   0.074934   0.004095   0.002764
     54      -0.000926   0.000514   0.063643   0.000863   0.000125   0.000176
     55      -0.000198  -0.000729   0.182363   0.001576   0.000086   0.000102
     56      -0.000207   0.000233   0.723229   0.006867   0.000301   0.000691
                 48         49         50         51         52         53    
      0      -0.000341   0.011391   0.017440  -0.010694   0.049835  -0.000378
      1       0.000919  -0.020974  -0.045351   0.029820   0.066696  -0.000174
      2       0.000304  -0.022202  -0.045660   0.034819  -0.036842  -0.000574
      3       0.000198   0.001719  -0.000368  -0.000093  -0.000338   0.000018
      4      -0.002932   0.004725   0.012757   0.033745   0.004669  -0.000308
      5       0.001287   0.037755   0.027453   0.066465  -0.001333  -0.000263
      6       0.002007   0.006026  -0.004782  -0.001882  -0.000731  -0.000212
      7      -0.015985  -0.065493   0.045909   0.016850   0.001386   0.001339
      8      -0.002290  -0.006174   0.005171   0.003201   0.000180   0.002410
      9      -0.000060  -0.000048   0.000092   0.000622  -0.000149   0.003632
     10       0.000837   0.002237  -0.001160  -0.000594   0.000025   0.011399
     11       0.000040  -0.000402  -0.000471  -0.000575   0.000041   0.038802
     12       0.039280  -0.004913   0.003489   0.000719   0.000083   0.000139
     13       0.078583  -0.014551   0.010291   0.002543   0.000108  -0.000301
     14      -0.023783   0.002705  -0.001809  -0.000282  -0.000103  -0.000430
     15       0.000397   0.000125  -0.000018   0.000067  -0.000003  -0.000166
     16       0.000716  -0.000047   0.000026   0.000016   0.000001  -0.000005
     17      -0.000478  -0.000164   0.000021  -0.000061   0.000025  -0.000368
     18      -0.000004   0.000037   0.000050   0.000105  -0.000004   0.000090
     19       0.000013   0.000051  -0.000016  -0.000002  -0.000006   0.000238
     20       0.000085   0.000113  -0.000050  -0.000021  -0.000010   0.000939
     21       0.001501  -0.127381  -0.198567   0.132113  -0.659489   0.001576
     22       0.001478  -0.083477  -0.134692   0.086465  -0.389155   0.000523
     23      -0.000749   0.081580   0.123530  -0.081300   0.448065   0.000517
     24       0.001180  -0.031290  -0.055940   0.039280   0.053953   0.000120
     25      -0.012193   0.304535   0.594891  -0.375846  -0.435991  -0.000782
     26      -0.001397   0.032047   0.063564  -0.038804  -0.062586  -0.000567
     27       0.000012   0.021186   0.051411  -0.047109   0.017738   0.002673
     28      -0.000173   0.033876   0.079307  -0.066145   0.027463   0.002856
     29      -0.001458   0.150057   0.357080  -0.299075   0.054365   0.006145
     30      -0.001567  -0.017887  -0.008404  -0.029156   0.000600   0.001697
     31      -0.003473  -0.070134  -0.047460  -0.111227   0.002463   0.000359
     32      -0.020097  -0.456431  -0.321294  -0.760909   0.019499  -0.002070
     33      -0.004870   0.001904   0.005955   0.030275   0.007278  -0.000679
     34       0.033544   0.009952  -0.108502  -0.294692  -0.052716   0.001963
     35       0.005474   0.005926  -0.010131  -0.032394  -0.006357   0.001116
     36      -0.016487  -0.074690   0.053296   0.015400   0.000063   0.001096
     37       0.200405   0.767831  -0.532939  -0.193218  -0.018512  -0.011719
     38       0.023888   0.081495  -0.057152  -0.020155  -0.001508  -0.005419
     39       0.000073   0.003098  -0.002654   0.001203   0.000523   0.086514
     40      -0.008204  -0.018846   0.012177   0.004489  -0.000382  -0.604031
     41      -0.003611   0.003385  -0.003558  -0.002549  -0.000623  -0.110004
     42      -0.001048   0.003037   0.001326  -0.001950   0.000021  -0.517859
     43      -0.001943  -0.002265  -0.003549   0.004097   0.000651   0.169848
     44      -0.000879  -0.001367   0.006254  -0.002579   0.001402  -0.225741
     45       0.000161  -0.002634   0.002923  -0.001693   0.000170   0.379425
     46      -0.002124  -0.002406   0.000750  -0.001035  -0.000010   0.273627
     47       0.004505  -0.003702   0.002752  -0.000003   0.000054  -0.216252
     48      -0.543858   0.071772  -0.051539  -0.011482  -0.001563   0.001179
     49      -0.308738   0.039735  -0.028434  -0.006322  -0.000911   0.000159
     50       0.367659  -0.046480   0.033116   0.006974   0.000928   0.000199
     51       0.070623  -0.017999   0.012345   0.004607   0.000791   0.000550
     52      -0.641248   0.137225  -0.096825  -0.027143  -0.001373   0.001535
     53      -0.078140   0.014391  -0.010100  -0.002283   0.000020   0.000810
     54       0.000167   0.000145   0.000176   0.000203   0.000002  -0.000685
     55       0.000439   0.000235   0.000000   0.000156   0.000009  -0.002127
     56       0.000662   0.001307  -0.000268   0.000395  -0.000036  -0.008348
                  54         55         56    
      0       0.000004  -0.000508   0.000382
      1       0.000022  -0.000375   0.000193
      2      -0.000026  -0.000943   0.000560
      3       0.000008  -0.000006   0.000199
      4      -0.000028   0.000604   0.000393
      5      -0.000040   0.000059  -0.000097
      6      -0.000290   0.000321  -0.000254
      7       0.000134  -0.001836  -0.000982
      8      -0.000183   0.000017  -0.000263
      9       0.000005   0.049126  -0.064129
     10       0.000375  -0.062901  -0.047900
     11       0.000351   0.011400   0.011178
     12      -0.000348  -0.000300   0.000462
     13      -0.000310   0.000605   0.000295
     14      -0.001610  -0.000204  -0.000094
     15       0.002741   0.000037   0.000000
     16       0.008455   0.000019   0.000040
     17       0.033408   0.000118   0.000101
     18      -0.009824  -0.000017  -0.000022
     19      -0.028165  -0.000105  -0.000043
     20      -0.111849  -0.000376  -0.000155
     21       0.000182   0.000934  -0.000999
     22       0.000008   0.000456  -0.000381
     23       0.000021   0.001616  -0.000702
     24      -0.000020   0.000334  -0.000209
     25      -0.000086  -0.000798   0.000273
     26       0.000035  -0.000591   0.000438
     27       0.000035   0.004067  -0.001860
     28      -0.000008   0.004281  -0.002510
     29       0.000158   0.010134  -0.006572
     30      -0.000076   0.000403  -0.000795
     31       0.000105  -0.000285  -0.000065
     32       0.000807   0.000353  -0.001959
     33      -0.000008   0.001783   0.000585
     34      -0.000188  -0.003940  -0.000928
     35      -0.000008  -0.001150  -0.000762
     36       0.000364  -0.002365   0.000246
     37      -0.000739   0.017735   0.010331
     38       0.000109   0.003837   0.002115
     39       0.001020  -0.089141  -0.061111
     40      -0.008728   0.678053   0.334279
     41      -0.001934   0.137665   0.069424
     42      -0.003343  -0.622691   0.321557
     43       0.001179   0.190806  -0.117126
     44      -0.001249  -0.284821   0.153472
     45       0.002667   0.030078   0.626987
     46       0.002179   0.003499   0.446146
     47      -0.001926  -0.011258  -0.374368
     48       0.002936   0.000259  -0.001896
     49       0.001244  -0.000085  -0.001700
     50      -0.002260  -0.000406   0.002163
     51       0.000605  -0.000880  -0.000689
     52      -0.003575  -0.003513  -0.001761
     53      -0.000883  -0.001068  -0.000254
     54       0.087423   0.000222   0.000169
     55       0.240425   0.000821   0.000291
     56       0.959069   0.003091   0.001063


-----------
IR SPECTRUM
-----------

 Mode    freq (cm**-1)   T**2         TX         TY         TZ
-------------------------------------------------------------------
   6:        80.08    1.942338  (  0.606871   1.233045  -0.231613)
   7:        90.31    2.251476  ( -0.593718   1.187682   0.698847)
   8:       147.06    5.801489  (  1.458911  -1.913017  -0.115911)
   9:       201.35    0.945340  ( -0.762156   0.215590   0.563897)
  10:       233.01    1.012744  ( -0.967430  -0.264213   0.083747)
  11:       248.51   15.117704  ( -3.338479  -0.467464   1.937458)
  12:       323.36    2.780274  (  1.180856   0.655410   0.977901)
  13:       338.25   11.992250  (  1.562572   3.011758  -0.692772)
  14:       403.68    8.323620  ( -2.878755  -0.074255   0.175723)
  15:       430.50    5.659803  ( -0.312394   1.063763  -2.104904)
  16:       540.67    9.425710  (  2.147433  -1.124104   1.884312)
  17:       719.11   41.312090  ( -2.683200  -5.624274   1.574824)
  18:       741.60   35.070369  (  5.356179  -2.526057  -0.027536)
  19:       761.18    4.716220  (  1.670320  -1.068103  -0.886232)
  20:       811.36    1.369156  ( -0.576598   0.184839  -1.001262)
  21:       894.05   12.273962  ( -1.271710   1.004157  -3.106185)
  22:       922.53   17.900849  ( -4.025708   0.817099   1.013348)
  23:       947.07    3.465563  ( -0.476920  -0.069111  -1.798147)
  24:       984.99   13.016655  (  2.197308   2.727114  -0.866800)
  25:      1020.69    4.625035  (  1.979265  -0.162921  -0.825229)
  26:      1059.35    3.954362  (  1.231103   0.230585   1.544532)
  27:      1111.41    7.819726  ( -0.818517  -1.164453  -2.407033)
  28:      1141.26    3.108510  (  1.651567  -0.617046   0.009530)
  29:      1197.80   14.122144  ( -3.470057  -1.176494  -0.834693)
  30:      1245.74    1.220819  (  0.906876   0.292123   0.559516)
  31:      1313.68    5.376097  ( -2.211340  -0.545925  -0.433632)
  32:      1332.10    1.323396  ( -0.679357   0.281134  -0.884779)
  33:      1347.58    5.540935  ( -0.677404  -0.116449  -2.251333)
  34:      1401.02    8.026264  (  1.571418  -1.430660   1.873531)
  35:      1410.86    4.676062  (  0.749513   1.593420  -1.255112)
  36:      1421.21    5.458930  ( -1.817086   0.559946   1.357788)
  37:      1462.61   10.037213  (  1.950337  -1.687912   1.839660)
  38:      1473.66    0.626981  (  0.444885  -0.639630  -0.141184)
  39:      1480.76  126.491367  ( -2.109568  -0.455837  11.037812)
  40:      1492.26   15.593097  ( -0.848295  -0.437740  -3.831694)
  41:      1507.63   69.746729  (  0.364400   4.268279   7.169082)
  42:      1649.08   47.057298  ( -2.366869   6.064370  -2.163016)
  43:      1657.22   38.041061  (  5.511296   2.496681  -1.197188)
  44:      2256.31    4.653814  (  0.446459   0.363387   2.079047)
  45:      3021.50   13.781399  (  0.291591  -0.953892  -3.575816)
  46:      3034.38   24.039735  ( -0.607151   0.338882  -4.853479)
  47:      3040.51    8.095137  (  1.490220  -2.423462  -0.034888)
  48:      3060.31    1.659378  (  0.978482   0.711331  -0.442672)
  49:      3099.85    4.215071  (  0.460893  -1.899081  -0.629397)
  50:      3103.03    5.461365  (  0.522044  -0.759883  -2.147420)
  51:      3122.40    6.153772  ( -0.216242   2.067511   1.353665)
  52:      3149.32    1.774328  (  0.411746   1.247130  -0.222398)
  53:      3415.27   38.209036  ( -1.102007  -1.021051  -5.996005)
  54:      3463.78   91.690073  (  1.447126   2.190209   9.208631)
  55:      3495.95   87.227187  ( -6.532082   6.646608  -0.617811)
  56:      3509.53   93.342865  (  7.747111   5.428921  -1.962639)

The first frequency considered to be a vibration is 6
The total number of vibrations considered is 51


--------------------------
THERMOCHEMISTRY AT 298.15K
--------------------------

Temperature         ... 298.15 K
Pressure            ... 1.00 atm
Total Mass          ... 98.17 AMU

Throughout the following assumptions are being made:
  (1) The electronic state is orbitally nondegenerate
  (2) There are no thermally accessible electronically excited states
  (3) Hindered rotations indicated by low frequency modes) are not
      treated as such but are treated as vibrations and this may
      case some error
  (4) All equations used are the standard statistical mechanics
      equations for an ideal gas
  (5) All vibrations are strinctly harmonic


------------
INNER ENERGY
------------

The inner energy is: U= E(el) + E(ZPE) + E(vib) + E(rot) + E(trans)
    E(el)   - is the total energy from the electronic structure calculation
              = E(kin-el) + E(nuc-el) + E(el-el) + E(nuc-nuc)
    E(ZPE)  - the the zero temperature vibrational energy from the frequency calculation
    E(vib)  - the the finite temperature correction to E(ZPE) due to population
              of excietd vibrational states
    E(rot)  - is the rotational thermal energy
    E(trans)- is the translational thermal energy

Summary of contributions to the inner energy U:
Electronic energy                ...   -290.05532405 Eh
Zero point energy                ...      0.17386226 Eh     109.10 kcal/mol
Thermal vibrational correction   ...      0.00606079 Eh       3.80 kcal/mol
Thermal rotational correction    ...      0.00141627 Eh       0.89 kcal/mol
Thermal translational correction ...      0.00141627 Eh       0.89 kcal/mol
-----------------------------------------------------------------------
Total thermal energy                   -289.87256846 Eh


Summary of corrections to the electronic energy:
(perhaps to be used in another calculation)
Total thermal correction                  0.00889333 Eh       5.58 kcal/mol
Non-thermal (ZPE) correction              0.17386226 Eh     109.10 kcal/mol
-----------------------------------------------------------------------
Total correction                          0.18275559 Eh     114.68 kcal/mol


--------
ENTHALPY
--------

The enthalpy is H = U + kB*T
                kB is Boltzmann's constant
Total free energy                 ...   -289.87256846 Eh 
Thermal Enthalpy correction       ...      0.00094421 Eh       0.59 kcal/mol
-----------------------------------------------------------------------
Total Enthalpy                    ...   -289.87162425 Eh


-------
ENTROPY
-------

The entropy contributions are T*S = T*(S(el)+S(vib)+S(rot)+S(trans)
     S(el)   - electronic entropy
     S(vib)  - vibrational entropy
     S(rot)  - rotational entropy
     S(trans)- translational entropy
The entropies will be listed as mutliplied by the temperature to get
units of energy

Electronic entropy                ...      0.00000000 Eh      0.00 kcal/mol
Vibrational entropy               ...      0.01086674 Eh      6.82 kcal/mol
Rotational entropy                ...      0.01232488 Eh      7.73 kcal/mol
Translational entropy             ...      0.01884507 Eh     11.83 kcal/mol
-----------------------------------------------------------------------
Final entropy term                ...      0.04203669 Eh     26.38 kcal/mol


CAUTION: The rotational entropy is not quite correctly treated here
         because it includes a symmetry number that is not yet correctly
         implemented in ORCA!
For a nonlinear molecule the correct rotational entropy is:
    S(rot) = R*(ln(qrot/sn)+1.5)
    R    = 8.31441 J/mol/K = 1.987191683e-3 kcal/mol/K
    qrot = 312427.7529668
    sn is the rotational symmetry number. We have assumed 3 here
       if it is different for your molecule then you should correct
       the printed rotational entropy by manually evaluating the equation
       as given above

For convenience we print out the resulting values for sn=1 - 12:
 sn= 1  qrot/sn=  312427.7530 T*S(rot)=     8.38 kcal/mol T*S(tot)=    27.03 kcal/mol
 sn= 2  qrot/sn=  156213.8765 T*S(rot)=     7.97 kcal/mol T*S(tot)=    26.62 kcal/mol
 sn= 3  qrot/sn=  104142.5843 T*S(rot)=     7.73 kcal/mol T*S(tot)=    26.38 kcal/mol
 sn= 4  qrot/sn=   78106.9382 T*S(rot)=     7.56 kcal/mol T*S(tot)=    26.21 kcal/mol
 sn= 5  qrot/sn=   62485.5506 T*S(rot)=     7.43 kcal/mol T*S(tot)=    26.08 kcal/mol
 sn= 6  qrot/sn=   52071.2922 T*S(rot)=     7.32 kcal/mol T*S(tot)=    25.97 kcal/mol
 sn= 7  qrot/sn=   44632.5361 T*S(rot)=     7.23 kcal/mol T*S(tot)=    25.88 kcal/mol
 sn= 8  qrot/sn=   39053.4691 T*S(rot)=     7.15 kcal/mol T*S(tot)=    25.80 kcal/mol
 sn= 9  qrot/sn=   34714.1948 T*S(rot)=     7.08 kcal/mol T*S(tot)=    25.73 kcal/mol
 sn=10  qrot/sn=   31242.7753 T*S(rot)=     7.02 kcal/mol T*S(tot)=    25.67 kcal/mol
 sn=11  qrot/sn=   28402.5230 T*S(rot)=     6.96 kcal/mol T*S(tot)=    25.61 kcal/mol
 sn=12  qrot/sn=   26035.6461 T*S(rot)=     6.91 kcal/mol T*S(tot)=    25.56 kcal/mol


-------------------
GIBBS FREE ENTHALPY
-------------------

The Gibbs free enthalpy is G = H - T*S

Total enthalpy                    ...   -289.87162425 Eh 
Total entropy correction          ...     -0.04203669 Eh    -26.38 kcal/mol
-----------------------------------------------------------------------
Final Gibbs free enthalpy         ...   -289.91366094 Eh

For completeness - the Gibbs free enthalpy minus the electronic energy
G-E(el)                           ...      0.14166311 Eh     88.89 kcal/mol


Timings for individual modules:

Sum of individual times         ...     2556.752 sec (=  42.613 min)
GTO integral calculation        ...        9.189 sec (=   0.153 min)   0.4 %
SCF iterations                  ...      231.267 sec (=   3.854 min)   9.0 %
SCF Gradient evaluation         ...      106.809 sec (=   1.780 min)   4.2 %
Geometry relaxation             ...        0.220 sec (=   0.004 min)   0.0 %
Analytical frequency calculation...     2209.266 sec (=  36.821 min)  86.4 %
                             ****ORCA TERMINATED NORMALLY****
TOTAL RUN TIME: 0 days 0 hours 42 minutes 38 seconds 536 msec
