
                                 *****************
                                 * O   R   C   A *
                                 *****************

           --- An Ab Initio, DFT and Semiempirical electronic structure package ---

                  #######################################################
                  #                        -***-                        #
                  #  Department of molecular theory and spectroscopy    #
                  #              Directorship: Frank Neese              #
                  # Max Planck Institute for Chemical Energy Conversion #
                  #                  D-45470 Muelheim/Ruhr              #
                  #                       Germany                       #
                  #                                                     #
                  #                  All rights reserved                #
                  #                        -***-                        #
                  #######################################################


                         Program Version 3.0.3 - RELEASE   -


 With contributions from (in alphabetic order):
   Ute Becker             : Parallelization
   Dmytro Bykov           : SCF Hessian
   Dmitry Ganyushin       : Spin-Orbit,Spin-Spin,Magnetic field MRCI
   Andreas Hansen         : Spin unrestricted coupled pair/coupled cluster methods
   Dimitrios Liakos       : Extrapolation schemes; parallel MDCI
   Robert Izsak           : Overlap fitted RIJCOSX, COSX-SCS-MP3
   Christian Kollmar      : KDIIS, OOCD, Brueckner-CCSD(T), CCSD density
   Simone Kossmann        : Meta GGA functionals, TD-DFT gradient, OOMP2, MP2 Hessian
   Taras Petrenko         : DFT Hessian,TD-DFT gradient, ASA and ECA modules, normal mode analysis, Resonance Raman, ABS, FL, XAS/XES, NRVS
   Christoph Reimann      : Effective Core Potentials
   Michael Roemelt        : Restricted open shell CIS
   Christoph Riplinger    : Improved optimizer, TS searches, QM/MM, DLPNO-CCSD
   Barbara Sandhoefer     : DKH picture change effects
   Igor Schapiro          : Molecular dynamics
   Kantharuban Sivalingam : CASSCF convergence, NEVPT2
   Boris Wezisla          : Elementary symmetry handling
   Frank Wennmohs         : Technical directorship


 We gratefully acknowledge several colleagues who have allowed us to
 interface, adapt or use parts of their codes:
   Stefan Grimme, W. Hujo, H. Kruse, T. Risthaus : VdW corrections, initial TS optimization,
                                                   DFT functionals, gCP
   Ed Valeev                                     : LibInt (2-el integral package), F12 methods
   Garnet Chan, S. Sharma, R. Olivares           : DMRG
   Ulf Ekstrom                                   : XCFun DFT Library
   Mihaly Kallay                                 : mrcc  (arbitrary order and MRCC methods)
   Andreas Klamt, Michael Diedenhofen            : otool_cosmo (COSMO solvation model)
   Frank Weinhold                                : gennbo (NPA and NBO analysis)
   Christopher J. Cramer and Donald G. Truhlar   : smd solvation model


 Your calculation uses the libint2 library for the computation of 2-el integrals
 For citations please refer to: http://libint.valeyev.net

 This ORCA versions uses:
   CBLAS   interface :  Fast vector & matrix operations
   LAPACKE interface :  Fast linear algebra routines
   SCALAPACK package :  Parallel linear algebra routines


Your calculation utilizes the basis: Ahlrichs-TZV
Cite in your paper:
H - Kr: A. Schaefer, H. Horn and R. Ahlrichs, J. Chem. Phys. 97, 2571 (1992).

The def2-TZV basis will be loaded
Cite in your paper:
 	F. Weigend, R. Ahlrichs, Phys. Chem. Chem. Phys. 2005, 7, 3297.

================================================================================
                                        WARNINGS
                       Please study these warnings very carefully!
================================================================================
Now building the actual basis set
WARNING: Geometry optimizations can change the point-group symmetry!

WARNING: Geometry Optimization
  ===> : Switching off AutoStart
         For restart on a previous wavefunction, please use MOREAD


INFO   : the flag for use of LIBINT has been found!

================================================================================
                                       INPUT FILE
================================================================================
NAME = 2401_+.inp
|  1> ! NORI PBE0 def2-TZVP UseSym TightOPT Freq TightSCF Grid3 FinalGrid5 XYZFile
|  2> % pal
|  3>     nprocs 8
|  4> end
|  5> %method
|  6>     SymThresh 5.0e-2
|  7> end
|  8> % geom 
|  9>     MaxIter 10
| 10> end 
| 11> % maxcore 2000
| 12> % output
| 13>     printlevel mini
| 14>     print[ P_Basis ] 0
| 15>     print[ P_SCFInfo ] 1
| 16>     print[ P_SCFIterInfo ] 1
| 17>     print[ P_OrbEn ] 0
| 18>     print[ P_Cartesian ] 0
| 19> end
| 20> % elprop
| 21>     Dipole false
| 22> end
| 23> *xyz 1 1
| 24>  C        0.3948017503     0.2699156647     0.0446083795 
| 25>  C        1.9152013656     0.3058334364     0.0052861141 
| 26>  C        2.4640506254    -0.9263792914    -0.6788268944 
| 27>  N        3.9706699161    -0.8875617100    -0.7223522987 
| 28>  C        4.6220769964    -2.0821023070    -1.3483164455 
| 29>  C        4.3468298491    -3.2673036031    -0.5570952330 
| 30>  N        4.1189342784    -4.1819243350     0.0979762181 
| 31>  H        0.0118708228     1.1605291341     0.5422515710 
| 32>  H        0.0309639846    -0.6005125833     0.5944279310 
| 33>  H       -0.0306904937     0.2429643112    -0.9605889454 
| 34>  H        2.2499755443     1.2051794274    -0.5241111193 
| 35>  H        2.3086980427     0.3651938171     1.0261889166 
| 36>  H        2.1947725598    -1.8438658427    -0.1524132933 
| 37>  H        2.1294057251    -1.0066052875    -1.7151916905 
| 38>  H        4.2634796968    -0.0503271056    -1.2319991413 
| 39>  H        4.3210834848    -0.7758358558     0.2333305366 
| 40>  H        5.6984678846    -1.9036544356    -1.4052057119 
| 41>  H        4.2286379667    -2.1925334339    -2.3608188938 
| 42> *
| 43> 
| 44>                          ****END OF INPUT****
================================================================================

The point group is C1 - hence turning off symmetry
If this is a round-off problem, please increase the symmetry
        detection tolerance (%method SymThresh)


                       *****************************
                       * Geometry Optimization Run *
                       *****************************

Geometry optimization settings:
Update method            Update   .... BFGS
Choice of coordinates    CoordSys .... Redundant Internals
Initial Hessian          InHess   .... Almoef's Model

Convergence Tolerances:
Energy Change            TolE     ....  1.0000e-06 Eh
Max. Gradient            TolMAXG  ....  1.0000e-04 Eh/bohr
RMS Gradient             TolRMSG  ....  3.0000e-05 Eh/bohr
Max. Displacement        TolMAXD  ....  1.0000e-03 bohr
RMS Displacement         TolRMSD  ....  6.0000e-04 bohr

------------------------------------------------------------------------------
                        ORCA OPTIMIZATION COORDINATE SETUP
------------------------------------------------------------------------------

The optimization will be done in new redundant internal coordinates
Making redundant internal coordinates   ...  (new redundants) done
Evaluating the initial hessian          ...  (Almloef) done
Evaluating the coordinates              ...  done
Calculating the B-matrix                .... done
Calculating the G-matrix                .... done
Diagonalizing the G-matrix              .... done
Small eigenvalue found = 1.858e-02
The first mode is                       ....   37
The number of degrees of freedom        ....   48

    -----------------------------------------------------------------
                    Redundant Internal Coordinates


    -----------------------------------------------------------------
         Definition                    Initial Value    Approx d2E/dq
    -----------------------------------------------------------------
      1. B(C   1,C   0)                  1.5213         0.385662   
      2. B(C   2,C   1)                  1.5125         0.398410   
      3. B(N   3,C   2)                  1.5077         0.363092   
      4. B(C   4,N   3)                  1.4977         0.376752   
      5. B(C   5,C   4)                  1.4514         0.498673   
      6. B(N   6,C   5)                  1.1479         1.362047   
      7. B(H   7,C   0)                  1.0897         0.360478   
      8. B(H   8,C   0)                  1.0919         0.357548   
      9. B(H   9,C   0)                  1.0919         0.357628   
     10. B(H  10,C   1)                  1.0960         0.352284   
     11. B(H  11,C   1)                  1.0957         0.352610   
     12. B(H  12,C   2)                  1.0915         0.358102   
     13. B(H  13,C   2)                  1.0920         0.357457   
     14. B(H  14,N   3)                  1.0230         0.412595   
     15. B(H  15,N   3)                  1.0240         0.410997   
     16. B(H  16,C   4)                  1.0926         0.356723   
     17. B(H  17,C   4)                  1.0919         0.357653   
     18. A(H   7,C   0,H   9)          107.6773         0.290573   
     19. A(C   1,C   0,H   8)          111.3974         0.325640   
     20. A(H   8,C   0,H   9)          108.3024         0.290201   
     21. A(H   7,C   0,H   8)          107.7257         0.290563   
     22. A(C   1,C   0,H   9)          111.4838         0.325652   
     23. A(C   1,C   0,H   7)          110.1023         0.326077   
     24. A(C   2,C   1,H  10)          109.8284         0.326589   
     25. A(C   2,C   1,H  11)          109.5874         0.326639   
     26. A(C   0,C   1,H  10)          109.7021         0.324847   
     27. A(H  10,C   1,H  11)          107.2117         0.288886   
     28. A(C   0,C   1,C   2)          110.8005         0.369391   
     29. A(C   0,C   1,H  11)          109.6393         0.324896   
     30. A(H  12,C   2,H  13)          108.6841         0.290250   
     31. A(C   1,C   2,N   3)          110.7745         0.363314   
     32. A(N   3,C   2,H  13)          106.3029         0.320498   
     33. A(C   1,C   2,H  13)          112.2045         0.327374   
     34. A(N   3,C   2,H  12)          106.3844         0.320592   
     35. A(C   1,C   2,H  12)          112.1567         0.327472   
     36. A(H  14,N   3,H  15)          106.1241         0.298506   
     37. A(C   4,N   3,H  15)          109.1626         0.327125   
     38. A(C   2,N   3,H  15)          108.5304         0.325143   
     39. A(C   4,N   3,H  14)          108.6664         0.327334   
     40. A(C   2,N   3,C   4)          115.2232         0.357637   
     41. A(C   2,N   3,H  14)          108.7523         0.325351   
     42. A(N   3,C   4,H  17)          108.1508         0.322470   
     43. A(C   5,C   4,H  16)          110.4017         0.339681   
     44. A(N   3,C   4,H  16)          108.6626         0.322332   
     45. A(H  16,C   4,H  17)          108.8589         0.290099   
     46. A(N   3,C   4,C   5)          109.9367         0.380033   
     47. A(C   5,C   4,H  17)          110.7691         0.339829   
     48. L(C   4,C   5,N   6,N   3, 2) 180.9166         0.478287   
     49. L(C   4,C   5,N   6,N   3, 1) 178.1589         0.478287   
     50. D(H  10,C   1,C   0,H   9)     60.6886         0.011837   
     51. D(H  11,C   1,C   0,H   9)    178.1729         0.011837   
     52. D(H  11,C   1,C   0,H   8)    -60.7168         0.011837   
     53. D(H  10,C   1,C   0,H   7)    -58.7536         0.011837   
     54. D(C   2,C   1,C   0,H   9)    -60.7407         0.011837   
     55. D(H  10,C   1,C   0,H   8)   -178.2011         0.011837   
     56. D(C   2,C   1,C   0,H   8)     60.3696         0.011837   
     57. D(C   2,C   1,C   0,H   7)    179.8170         0.011837   
     58. D(H  11,C   1,C   0,H   7)     58.7306         0.011837   
     59. D(H  12,C   2,C   1,H  10)    177.1201         0.012598   
     60. D(N   3,C   2,C   1,H  11)    -59.1082         0.012598   
     61. D(N   3,C   2,C   1,H  10)     58.4198         0.012598   
     62. D(N   3,C   2,C   1,C   0)    179.7748         0.012598   
     63. D(H  12,C   2,C   1,H  11)     59.5921         0.012598   
     64. D(H  13,C   2,C   1,H  11)   -177.7368         0.012598   
     65. D(H  13,C   2,C   1,H  10)    -60.2089         0.012598   
     66. D(H  13,C   2,C   1,C   0)     61.1461         0.012598   
     67. D(H  12,C   2,C   1,C   0)    -61.5249         0.012598   
     68. D(H  15,N   3,C   2,H  12)    -66.4388         0.012111   
     69. D(H  15,N   3,C   2,C   1)     55.7004         0.012111   
     70. D(H  14,N   3,C   2,H  13)     62.8147         0.012111   
     71. D(H  14,N   3,C   2,H  12)    178.5295         0.012111   
     72. D(H  14,N   3,C   2,C   1)    -59.3313         0.012111   
     73. D(C   4,N   3,C   2,H  13)    -59.4307         0.012111   
     74. D(C   4,N   3,C   2,H  12)     56.2841         0.012111   
     75. D(H  15,N   3,C   2,H  13)    177.8464         0.012111   
     76. D(C   4,N   3,C   2,C   1)    178.4233         0.012111   
     77. D(H  16,C   4,N   3,C   2)    174.9826         0.013005   
     78. D(C   5,C   4,N   3,H  15)     58.2924         0.013005   
     79. D(C   5,C   4,N   3,H  14)    173.6159         0.013005   
     80. D(C   5,C   4,N   3,C   2)    -64.0926         0.013005   
     81. D(H  17,C   4,N   3,H  15)    179.3481         0.013005   
     82. D(H  17,C   4,N   3,H  14)    -65.3283         0.013005   
     83. D(H  17,C   4,N   3,C   2)     56.9632         0.013005   
     84. D(H  16,C   4,N   3,H  15)    -62.6324         0.013005   
     85. D(H  16,C   4,N   3,H  14)     52.6911         0.013005   
    -----------------------------------------------------------------

Number of atoms                         .... 18
Number of degrees of freedom            .... 85

         *************************************************************
         *                GEOMETRY OPTIMIZATION CYCLE   1            *
         *************************************************************


           ************************************************************
           *        Program running with 8 parallel MPI-processes     *
           *              working on a common directory               *
           ************************************************************
           ************************************************************
           *              Shut down parallel processing               *
           ************************************************************


           ************************************************************
           *        Program running with 8 parallel MPI-processes     *
           *              working on a common directory               *
           ************************************************************
------------
SCF SETTINGS
------------
Hamiltonian:
 Density Functional     Method          .... DFT(GTOs)
 Exchange Functional    Exchange        .... PBE
   PBE kappa parameter  XKappa          ....  0.804000
 Correlation Functional Correlation     .... PBE
 LDA part of GGA corr.  LDAOpt          .... PW91-LDA
 Gradients option       PostSCFGGA      .... off
 Hybrid DFT is turned on
   Fraction HF Exchange ScalHFX         ....  0.250000
   Scaling of DF-GGA-X  ScalDFX         ....  0.750000
   Scaling of DF-GGA-C  ScalDFC         ....  1.000000
   Scaling of DF-LDA-C  ScalLDAC        ....  1.000000
   Perturbative correction              ....  0.000000
   NL short-range parameter             ....  6.900000


General Settings:
 Integral files         IntName         .... 2401_+
 Hartree-Fock type      HFTyp           .... RHF
 Total Charge           Charge          ....    1
 Multiplicity           Mult            ....    1
 Number of Electrons    NEL             ....   54
 Basis Dimension        Dim             ....  283
 Nuclear Repulsion      ENuc            ....    294.4027158705 Eh

Convergence Acceleration:
 DIIS                   CNVDIIS         .... on
   Start iteration      DIISMaxIt       ....    12
   Startup error        DIISStart       ....  0.200000
   # of expansion vecs  DIISMaxEq       ....     5
   Bias factor          DIISBfac        ....   1.050
   Max. coefficient     DIISMaxC        ....  10.000
 Newton-Raphson         CNVNR           .... off
 SOSCF                  CNVSOSCF        .... on
   Start iteration      SOSCFMaxIt      ....   150
   Startup grad/error   SOSCFStart      ....  0.003300
 Level Shifting         CNVShift        .... on
   Level shift para.    LevelShift      ....    0.2500
   Turn off err/grad.   ShiftErr        ....    0.0010
 Zerner damping         CNVZerner       .... off
 Static damping         CNVDamp         .... on
   Fraction old density DampFac         ....    0.7000
   Max. Damping (<1)    DampMax         ....    0.9800
   Min. Damping (>=0)   DampMin         ....    0.0000
   Turn off err/grad.   DampErr         ....    0.1000
 Fernandez-Rico         CNVRico         .... off

SCF Procedure:
 Maximum # iterations   MaxIter         ....   125
 SCF integral mode      SCFMode         .... Direct
   Integral package                     .... LIBINT
 Reset frequeny         DirectResetFreq ....    20
 Integral Threshold     Thresh          ....  2.500e-11 Eh
 Primitive CutOff       TCut            ....  2.500e-12 Eh

Convergence Tolerance:
 Convergence Check Mode ConvCheckMode   .... Total+1el-Energy
 Energy Change          TolE            ....  1.000e-08 Eh
 1-El. energy change                    ....  1.000e-05 Eh
 Orbital Gradient       TolG            ....  1.000e-05
 Orbital Rotation angle TolX            ....  1.000e-05
 DIIS Error             TolErr          ....  5.000e-07


Diagonalization of the overlap matrix:
Smallest eigenvalue                        ... 1.239e-04
Time for diagonalization                   ...    0.444 sec
Threshold for overlap eigenvalues          ... 1.000e-08
Number of eigenvalues below threshold      ... 0
Time for construction of square roots      ...    0.029 sec
Total time needed                          ...    0.473 sec

-------------------
DFT GRID GENERATION
-------------------

General Integration Accuracy     IntAcc      ...  4.340
Radial Grid Type                 RadialGrid  ... Gauss-Chebyshev
Angular Grid (max. acc.)         AngularGrid ... Lebedev-194
Angular grid pruning method      GridPruning ... 3 (G Style)
Weight generation scheme         WeightScheme... Becke
Basis function cutoff            BFCut       ...    1.0000e-11
Integration weight cutoff        WCut        ...    1.0000e-14
Grids for H and He will be reduced by one unit

# of grid points (after initial pruning)     ...  39868 (   0.0 sec)
# of grid points (after weights+screening)   ...  36747 (   0.2 sec)
nearest neighbour list constructed           ...    0.0 sec
Grid point re-assignment to atoms done       ...    0.0 sec
Grid point division into batches done        ...    0.1 sec
Reduced shell lists constructed in    0.2 sec

Total number of grid points                  ...    36747
Total number of batches                      ...      583
Average number of points per batch           ...       63
Average number of grid points per atom       ...     2042
Average number of shells per batch           ...    91.92 (75.97%)
Average number of basis functions per batch  ...   213.43 (75.42%)
Average number of large shells per batch     ...    74.41 (80.95%)
Average number of large basis fcns per batch ...   171.59 (80.40%)
Maximum spatial batch extension              ...   2.57,  2.24,  2.16 au
Average spatial batch extension              ...   0.15,  0.14,  0.14 au

Time for grid setup =    0.806 sec

Loading Hartree-Fock densities                     ... done
Calculating cut-offs                               ... done
Setting up the integral package                    ... done
Initializing the effective Hamiltonian             ... done
Starting the Coulomb interaction                   ... done (   0.0 sec)
Reading the grid                                   ... done
Mapping shells                                     ... done
Starting the XC term evaluation                    ... done (   0.4 sec)
  promolecular density results
     # of electrons  =     54.991506941
     EX              =    -41.877571101
     EC              =     -1.792442318
     EX+EC           =    -43.670013419
Transforming the Hamiltonian                       ... done (   0.0 sec)
Diagonalizing the Hamiltonian                      ... done (   0.2 sec)
Back transforming the eigenvectors                 ... done (   0.0 sec)
Now organizing SCF variables                       ... done
--------------
SCF ITERATIONS
--------------
ITER       Energy         Delta-E        Max-DP      RMS-DP      [F,P]     Damp
               ***  Starting incremental Fock matrix formation  ***
  0   -305.9035472318   0.000000000000 0.07797544  0.00110145  0.2593548 0.7000
  1   -306.0081711001  -0.104623868316 0.05052987  0.00078971  0.0950486 0.7000
                               ***Turning on DIIS***
  2   -306.0450931285  -0.036922028395 0.06518517  0.00116469  0.0344561 0.0000
  3   -306.1087891275  -0.063695998959 0.05679319  0.00068281  0.0520607 0.0000
  4   -306.1205120911  -0.011722963629 0.01209392  0.00021252  0.0284722 0.0000
                      *** Initiating the SOSCF procedure ***
                           *** Shutting down DIIS ***
                      *** Re-Reading the Fockian *** 
                      *** Removing any level shift *** 
ITER      Energy       Delta-E        Grad      Rot      Max-DP    RMS-DP
  5   -306.12228907  -0.0017769831  0.000796  0.000796  0.005780  0.000076
               *** Restarting incremental Fock matrix formation ***
  6   -306.12232670  -0.0000376211  0.000195  0.000499  0.001985  0.000035
  7   -306.12232690  -0.0000002091  0.000453  0.000579  0.001360  0.000016
  8   -306.12232935  -0.0000024495  0.000178  0.000215  0.000618  0.000009
  9   -306.12232925   0.0000001042  0.000108  0.000081  0.000106  0.000003
 10   -306.12232987  -0.0000006171  0.000014  0.000021  0.000057  0.000001
 11   -306.12232987  -0.0000000015  0.000014  0.000011  0.000019  0.000000
                  ***Gradient check signals convergence***
              ***Rediagonalizing the Fockian in SOSCF/NRSCF***

               *****************************************************
               *                     SUCCESS                       *
               *           SCF CONVERGED AFTER  12 CYCLES          *
               *****************************************************

Setting up the final grid:

General Integration Accuracy     IntAcc      ...  5.010
Radial Grid Type                 RadialGrid  ... Gauss-Chebyshev
Angular Grid (max. acc.)         AngularGrid ... Lebedev-434
Angular grid pruning method      GridPruning ... 3 (G Style)
Weight generation scheme         WeightScheme... Becke
Basis function cutoff            BFCut       ...    1.0000e-11
Integration weight cutoff        WCut        ...    1.0000e-14
Grids for H and He will be reduced by one unit

# of grid points (after initial pruning)     ... 148282 (   0.0 sec)
# of grid points (after weights+screening)   ... 134803 (   0.2 sec)
nearest neighbour list constructed           ...    0.0 sec
Grid point re-assignment to atoms done       ...    0.0 sec
Grid point division into batches done        ...    1.0 sec
Reduced shell lists constructed in    1.3 sec

Total number of grid points                  ...   134803
Total number of batches                      ...     2114
Average number of points per batch           ...       63
Average number of grid points per atom       ...     7489
Average number of shells per batch           ...    91.36 (75.51%)
Average number of basis functions per batch  ...   212.64 (75.14%)
Average number of large shells per batch     ...    73.39 (80.33%)
Average number of large basis fcns per batch ...   169.53 (79.73%)
Maximum spatial batch extension              ...   2.00,  2.01,  2.01 au
Average spatial batch extension              ...   0.10,  0.09,  0.10 au

Final grid set up in    1.7 sec
Final integration                            ... done (   0.8 sec)
Change in XC energy                          ...     0.000150430
Integrated number of electrons               ...    54.000031273
Previous integrated no of electrons          ...    53.998212810
Total Energy       :         -306.12217945 Eh           -8330.00799 eV
  Last Energy change         ...   -9.0030e-09  Tolerance :   1.0000e-08
  Last MAX-Density change    ...    8.7803e-06  Tolerance :   1.0000e-07
             **** THE GBW FILE WAS UPDATED (2401_+.gbw) ****
             **** DENSITY FILE WAS UPDATED (2401_+.scfp.tmp) ****
             **** ENERGY FILE WAS UPDATED (2401_+.en.tmp) ****
Total SCF time: 0 days 0 hours 1 min 11 sec 
           ************************************************************
           *              Shut down parallel processing               *
           ************************************************************

-------------------------   --------------------
FINAL SINGLE POINT ENERGY      -306.122179447766
-------------------------   --------------------



           ************************************************************
           *        Program running with 8 parallel MPI-processes     *
           *              working on a common directory               *
           ************************************************************
------------------------------------------------------------------------------
                         ORCA SCF GRADIENT CALCULATION
------------------------------------------------------------------------------

Gradient of the Kohn-Sham DFT energy:
Kohn-Sham wavefunction type      ... RKS
Hartree-Fock exchange scaling    ...    0.250
Number of operators              ...    1
Number of atoms                  ...   18
Basis set dimensions             ...  283
Integral neglect threshold       ... 2.5e-11
Integral primitive cutoff        ... 2.5e-12

Nuclear repulsion gradient       ... done
One Electron Gradient            ... done
Pre-screening matrix             ... done
Starting the two electron gradient:
Two electron gradient done
Exchange-correlation gradient    ... done

------------------
CARTESIAN GRADIENT
------------------

   1   C   :    0.000192083    0.000083475    0.000307928
   2   C   :   -0.000026851   -0.000199864   -0.000123061
   3   C   :   -0.000032076   -0.000052531    0.000142904
   4   N   :   -0.000035852   -0.000034466   -0.000112386
   5   C   :   -0.000133476    0.000031013    0.000098940
   6   C   :   -0.000155846    0.000162884   -0.000142195
   7   N   :    0.000131640   -0.000113212    0.000013692
   8   H   :   -0.000033376    0.000030390   -0.000052617
   9   H   :   -0.000000715   -0.000044889   -0.000072081
  10   H   :   -0.000060581   -0.000048998   -0.000028048
  11   H   :    0.000054515   -0.000050627   -0.000057183
  12   H   :   -0.000063876    0.000181646    0.000012070
  13   H   :   -0.000010763    0.000066064   -0.000033615
  14   H   :    0.000045666   -0.000013022    0.000004524
  15   H   :    0.000059442    0.000023094   -0.000037647
  16   H   :   -0.000027256    0.000050363    0.000018936
  17   H   :    0.000038488   -0.000013094    0.000070879
  18   H   :    0.000058836   -0.000058228   -0.000011040

Norm of the cartesian gradient     ...    0.000677721
RMS gradient                       ...    0.000092226
MAX gradient                       ...    0.000307928

-------
TIMINGS
-------

Total SCF gradient time            ...       29.960 sec

One electron gradient       ....       0.172 sec  (  0.6%)
Prescreening matrices       ....       0.445 sec  (  1.5%)
Two electron gradient       ....      23.931 sec  ( 79.9%)
XC gradient                 ....       2.986 sec  ( 10.0%)
           ************************************************************
           *              Shut down parallel processing               *
           ************************************************************
------------------------------------------------------------------------------
                         ORCA GEOMETRY RELAXATION STEP
------------------------------------------------------------------------------

Reading the OPT-File                    .... done
Getting information on internals        .... done
Copying old internal coords+grads       .... done
Making the new internal coordinates     .... (new redundants).... done
Validating the new internal coordinates .... (new redundants).... done
Calculating the B-matrix                .... done
Calculating the G,G- and P matrices     .... done
Transforming gradient to internals      .... done
Projecting the internal gradient        .... done
Number of atoms                         ....  18
Number of internal coordinates          ....  85
Current Energy                          ....  -306.122179448 Eh
Current gradient norm                   ....     0.000677721 Eh/bohr
Maximum allowed component of the step   ....  0.300
Current trust radius                    ....  0.300
Evaluating the initial hessian          ....  (Almloef) done
Projecting the Hessian                  .... done
Forming the augmented Hessian           .... done
Diagonalizing the augmented Hessian     .... done
Last element of RFO vector              ....  0.999986211
Lowest eigenvalues of augmented Hessian:
 -0.000000882  0.011836743  0.012110984  0.012597568  0.013004819
Length of the computed step             ....  0.005251489
The final length of the internal step   ....  0.005251489
Converting the step to cartesian space:
 Initial RMS(Int)=    0.0005696040
Transforming coordinates:
 Iter   0:  RMS(Cart)=    0.0013259122 RMS(Int)=    0.0005693054
 Iter   1:  RMS(Cart)=    0.0000074518 RMS(Int)=    0.0000053570
 Iter   2:  RMS(Cart)=    0.0000037209 RMS(Int)=    0.0000026698
 Iter   3:  RMS(Cart)=    0.0000018605 RMS(Int)=    0.0000013348
 Iter   4:  RMS(Cart)=    0.0000009302 RMS(Int)=    0.0000006674
 Iter   5:  RMS(Cart)=    0.0000004651 RMS(Int)=    0.0000003337
 Iter   6:  RMS(Cart)=    0.0000002325 RMS(Int)=    0.0000001668
 Iter   7:  RMS(Cart)=    0.0000001163 RMS(Int)=    0.0000000834
 Iter   8:  RMS(Cart)=    0.0000000581 RMS(Int)=    0.0000000417
done
Storing new coordinates                 .... done

                                .--------------------.
          ----------------------|Geometry convergence|---------------------
          Item                value                 Tolerance   Converged
          -----------------------------------------------------------------
          RMS gradient        0.00004806            0.00003000      NO
          MAX gradient        0.00019265            0.00010000      NO
          RMS step            0.00056960            0.00060000      YES
          MAX step            0.00179853            0.00100000      NO
          ....................................................
          Max(Bonds)      0.0003      Max(Angles)    0.02
          Max(Dihed)        0.10      Max(Improp)    0.00
          -----------------------------------------------------------------

The optimization has not yet converged - more geometry cycles are needed


    ---------------------------------------------------------------------------
                         Redundant Internal Coordinates
                            (Angstroem and degrees)

        Definition                    Value    dE/dq     Step     New-Value
    ----------------------------------------------------------------------------
     1. B(C   1,C   0)                1.5213 -0.000178  0.0002    1.5216   
     2. B(C   2,C   1)                1.5125 -0.000025  0.0000    1.5125   
     3. B(N   3,C   2)                1.5077 -0.000121  0.0002    1.5079   
     4. B(C   4,N   3)                1.4977 -0.000048  0.0001    1.4978   
     5. B(C   5,C   4)                1.4514  0.000064 -0.0001    1.4513   
     6. B(N   6,C   5)                1.1479  0.000109 -0.0000    1.1478   
     7. B(H   7,C   0)                1.0897  0.000006 -0.0000    1.0897   
     8. B(H   8,C   0)                1.0919  0.000069 -0.0001    1.0918   
     9. B(H   9,C   0)                1.0919 -0.000023  0.0000    1.0919   
    10. B(H  10,C   1)                1.0960 -0.000086  0.0001    1.0961   
    11. B(H  11,C   1)                1.0957 -0.000193  0.0003    1.0960   
    12. B(H  12,C   2)                1.0915  0.000005 -0.0000    1.0915   
    13. B(H  13,C   2)                1.0920 -0.000024  0.0000    1.0920   
    14. B(H  14,N   3)                1.0230 -0.000057  0.0001    1.0230   
    15. B(H  15,N   3)                1.0240 -0.000054  0.0001    1.0241   
    16. B(H  16,C   4)                1.0926  0.000082 -0.0001    1.0924   
    17. B(H  17,C   4)                1.0919 -0.000070  0.0001    1.0920   
    18. A(H   7,C   0,H   9)          107.68 -0.000086    0.02    107.70   
    19. A(C   1,C   0,H   8)          111.40  0.000021   -0.01    111.39   
    20. A(H   8,C   0,H   9)          108.30 -0.000029   -0.00    108.30   
    21. A(H   7,C   0,H   8)          107.73 -0.000055    0.01    107.74   
    22. A(C   1,C   0,H   9)          111.48  0.000074   -0.02    111.47   
    23. A(C   1,C   0,H   7)          110.10  0.000065   -0.01    110.09   
    24. A(C   2,C   1,H  10)          109.83  0.000014    0.00    109.83   
    25. A(C   2,C   1,H  11)          109.59  0.000021   -0.01    109.58   
    26. A(C   0,C   1,H  10)          109.70  0.000015   -0.00    109.70   
    27. A(H  10,C   1,H  11)          107.21 -0.000025    0.01    107.22   
    28. A(C   0,C   1,C   2)          110.80 -0.000051    0.01    110.81   
    29. A(C   0,C   1,H  11)          109.64  0.000028   -0.01    109.63   
    30. A(H  12,C   2,H  13)          108.68 -0.000025    0.01    108.70   
    31. A(C   1,C   2,N   3)          110.77  0.000009   -0.01    110.77   
    32. A(N   3,C   2,H  13)          106.30 -0.000041    0.01    106.31   
    33. A(C   1,C   2,H  13)          112.20  0.000045   -0.01    112.19   
    34. A(N   3,C   2,H  12)          106.38  0.000030   -0.01    106.38   
    35. A(C   1,C   2,H  12)          112.16 -0.000020    0.00    112.16   
    36. A(H  14,N   3,H  15)          106.12  0.000004    0.00    106.12   
    37. A(C   4,N   3,H  15)          109.16 -0.000012    0.00    109.16   
    38. A(C   2,N   3,H  15)          108.53  0.000007   -0.01    108.52   
    39. A(C   4,N   3,H  14)          108.67 -0.000022    0.01    108.67   
    40. A(C   2,N   3,C   4)          115.22  0.000023   -0.00    115.22   
    41. A(C   2,N   3,H  14)          108.75 -0.000001    0.00    108.75   
    42. A(N   3,C   4,H  17)          108.15  0.000074   -0.01    108.14   
    43. A(C   5,C   4,H  16)          110.40  0.000009    0.00    110.40   
    44. A(N   3,C   4,H  16)          108.66  0.000002   -0.00    108.66   
    45. A(H  16,C   4,H  17)          108.86 -0.000014   -0.00    108.86   
    46. A(N   3,C   4,C   5)          109.94 -0.000052    0.01    109.95   
    47. A(C   5,C   4,H  17)          110.77 -0.000018    0.00    110.77   
    48. L(C   4,C   5,N   6,N   3, 2) 180.92  0.000094   -0.01    180.91   
    49. L(C   4,C   5,N   6,N   3, 1) 178.16  0.000026   -0.00    178.16   
    50. D(H  10,C   1,C   0,H   9)     60.69 -0.000013   -0.01     60.68   
    51. D(H  11,C   1,C   0,H   9)    178.17 -0.000018   -0.00    178.17   
    52. D(H  11,C   1,C   0,H   8)    -60.72  0.000012   -0.02    -60.73   
    53. D(H  10,C   1,C   0,H   7)    -58.75  0.000004   -0.02    -58.77   
    54. D(C   2,C   1,C   0,H   9)    -60.74 -0.000007   -0.01    -60.75   
    55. D(H  10,C   1,C   0,H   8)   -178.20  0.000017   -0.02   -178.22   
    56. D(C   2,C   1,C   0,H   8)     60.37  0.000023   -0.03     60.34   
    57. D(C   2,C   1,C   0,H   7)    179.82  0.000010   -0.02    179.80   
    58. D(H  11,C   1,C   0,H   7)     58.73 -0.000001   -0.01     58.72   
    59. D(H  12,C   2,C   1,H  10)    177.12  0.000010    0.01    177.13   
    60. D(N   3,C   2,C   1,H  11)    -59.11 -0.000010    0.01    -59.09   
    61. D(N   3,C   2,C   1,H  10)     58.42 -0.000021    0.02     58.44   
    62. D(N   3,C   2,C   1,C   0)    179.77 -0.000026    0.02    179.80   
    63. D(H  12,C   2,C   1,H  11)     59.59  0.000021    0.00     59.59   
    64. D(H  13,C   2,C   1,H  11)   -177.74  0.000006    0.01   -177.72   
    65. D(H  13,C   2,C   1,H  10)    -60.21 -0.000004    0.02    -60.19   
    66. D(H  13,C   2,C   1,C   0)     61.15 -0.000009    0.02     61.17   
    67. D(H  12,C   2,C   1,C   0)    -61.52  0.000005    0.01    -61.51   
    68. D(H  15,N   3,C   2,H  12)    -66.44 -0.000030    0.10    -66.34   
    69. D(H  15,N   3,C   2,C   1)     55.70 -0.000030    0.09     55.80   
    70. D(H  14,N   3,C   2,H  13)     62.81 -0.000004    0.09     62.90   
    71. D(H  14,N   3,C   2,H  12)    178.53 -0.000038    0.10    178.63   
    72. D(H  14,N   3,C   2,C   1)    -59.33 -0.000038    0.10    -59.23   
    73. D(C   4,N   3,C   2,H  13)    -59.43  0.000010    0.08    -59.35   
    74. D(C   4,N   3,C   2,H  12)     56.28 -0.000025    0.09     56.38   
    75. D(H  15,N   3,C   2,H  13)    177.85  0.000004    0.08    177.93   
    76. D(C   4,N   3,C   2,C   1)    178.42 -0.000024    0.09    178.51   
    77. D(H  16,C   4,N   3,C   2)    174.98  0.000004    0.02    175.00   
    78. D(C   5,C   4,N   3,H  15)     58.29  0.000002    0.02     58.31   
    79. D(C   5,C   4,N   3,H  14)    173.62 -0.000012    0.02    173.64   
    80. D(C   5,C   4,N   3,C   2)    -64.09 -0.000015    0.03    -64.07   
    81. D(H  17,C   4,N   3,H  15)    179.35 -0.000006    0.02    179.37   
    82. D(H  17,C   4,N   3,H  14)    -65.33 -0.000020    0.03    -65.30   
    83. D(H  17,C   4,N   3,C   2)     56.96 -0.000022    0.03     56.99   
    84. D(H  16,C   4,N   3,H  15)    -62.63  0.000020    0.01    -62.62   
    85. D(H  16,C   4,N   3,H  14)     52.69  0.000006    0.01     52.70   
    ----------------------------------------------------------------------------

         *************************************************************
         *                GEOMETRY OPTIMIZATION CYCLE   2            *
         *************************************************************
---------------------------------
CARTESIAN COORDINATES (ANGSTROEM)
---------------------------------
  C     -2.869095   -0.553651   -1.398144
  C     -2.041541   -0.722616   -0.132522
  C     -0.816596    0.163871   -0.169190
  N      0.000304   -0.000614    1.087573
  C      1.259270    0.808987    1.140898
  C      2.170568    0.376563    0.097423
  N      2.870771    0.002210   -0.731471
  H     -3.745945   -1.199576   -1.361112
  H     -2.295641   -0.821906   -2.287689
  H     -3.218734    0.474399   -1.512728
  H     -2.652260   -0.476848    0.743869
  H     -1.734258   -1.769717   -0.030558
  H     -0.154498   -0.083012   -1.001093
  H     -1.075576    1.222998   -0.230269
  H     -0.581419    0.244988    1.892474
  H      0.233187   -0.991859    1.196852
  H      1.717047    0.679051    2.124255
  H      0.993181    1.860107    1.011590

----------------------------
CARTESIAN COORDINATES (A.U.)
----------------------------
  NO LB      ZA    FRAG    MASS        X           Y           Z
   0 C     6.0000    0    12.011         -5.421803536134257         -1.046248800995950         -2.642109834490162
   1 C     6.0000    0    12.011         -3.857952801179536         -1.365546958650085         -0.250430279425002
   2 C     6.0000    0    12.011         -1.543142319174637          0.309670455839558         -0.319723023401713
   3 N     7.0000    0    14.007          0.000575085251754         -0.001160233403976          2.055214175858299
   4 C     6.0000    0    12.011          2.379675556622530          1.528763745581964          2.155985467051852
   5 C     6.0000    0    12.011          4.101779958912275          0.711601648274905          0.184102506619607
   6 N     7.0000    0    14.007          5.424970958154661          0.004176165703739         -1.382279785031757
   7 H     1.0000    0     1.008         -7.078809835924272         -2.266870599610132         -2.572128904812750
   8 H     1.0000    0     1.008         -4.338132309413752         -1.553177853415398         -4.323106262502708
   9 H     1.0000    0     1.008         -6.082525805809349          0.896484960908131         -2.858642242448715
  10 H     1.0000    0     1.008         -5.012045173980730         -0.901112697023880          1.405708740476751
  11 H     1.0000    0     1.008         -3.277272078440166         -3.344280560103635         -0.057745630908793
  12 H     1.0000    0     1.008         -0.291958568112997         -0.156870458509380         -1.891792195373932
  13 H     1.0000    0     1.008         -2.032543572487925          2.311131775098491         -0.435144962216240
  14 H     1.0000    0     1.008         -1.098722033982103          0.462960715499674          3.576258242353202
  15 H     1.0000    0     1.008          0.440660072797786         -1.874342660453796          2.261722292440133
  16 H     1.0000    0     1.008          3.244748005000849          1.283220020118343          4.014260198393659
  17 H     1.0000    0     1.008          1.876839677805433          3.515093067788734          1.911627340610353

--------------------------------
INTERNAL COORDINATES (ANGSTROEM)
--------------------------------
 C      0   0   0   0.000000     0.000     0.000
 C      1   0   0   1.521576     0.000     0.000
 C      2   1   0   1.512512   110.807     0.000
 N      3   2   1   1.507923   110.769   179.799
 C      4   3   2   1.497762   115.219   178.512
 C      5   4   3   1.451308   109.947   295.934
 N      6   5   4   1.147819   178.079   343.328
 H      1   2   3   1.089705   110.093   179.797
 H      1   2   3   1.091834   111.391    60.343
 H      1   2   3   1.091909   111.469   299.249
 H      2   1   3   1.096103   109.702   121.434
 H      2   1   3   1.096011   109.631   238.923
 H      3   2   1   1.091507   112.159   298.486
 H      3   2   1   1.092041   112.193    61.169
 H      4   3   2   1.023029   108.754   300.765
 H      4   3   2   1.024082   108.525    55.795
 H      5   4   3   1.092444   108.662   175.001
 H      5   4   3   1.091961   108.136    56.993

---------------------------
INTERNAL COORDINATES (A.U.)
---------------------------
 C      0   0   0   0.000000     0.000     0.000
 C      1   0   0   2.875363     0.000     0.000
 C      2   1   0   2.858234   110.807     0.000
 N      3   2   1   2.849562   110.769   179.799
 C      4   3   2   2.830361   115.219   178.512
 C      5   4   3   2.742575   109.947   295.934
 N      6   5   4   2.169064   178.079   343.328
 H      1   2   3   2.059244   110.093   179.797
 H      1   2   3   2.063267   111.391    60.343
 H      1   2   3   2.063409   111.469   299.249
 H      2   1   3   2.071334   109.702   121.434
 H      2   1   3   2.071160   109.631   238.923
 H      3   2   1   2.062649   112.159   298.486
 H      3   2   1   2.063658   112.193    61.169
 H      4   3   2   1.933245   108.754   300.765
 H      4   3   2   1.935235   108.525    55.795
 H      5   4   3   2.064419   108.662   175.001
 H      5   4   3   2.063506   108.136    56.993



           ************************************************************
           *        Program running with 8 parallel MPI-processes     *
           *              working on a common directory               *
           ************************************************************
           ************************************************************
           *              Shut down parallel processing               *
           ************************************************************


           ************************************************************
           *        Program running with 8 parallel MPI-processes     *
           *              working on a common directory               *
           ************************************************************

Diagonalization of the overlap matrix:
Smallest eigenvalue                        ... 1.239e-04
Time for diagonalization                   ...    0.260 sec
Threshold for overlap eigenvalues          ... 1.000e-08
Number of eigenvalues below threshold      ... 0
Time for construction of square roots      ...    0.028 sec
Total time needed                          ...    0.289 sec

-------------------
DFT GRID GENERATION
-------------------

General Integration Accuracy     IntAcc      ...  4.340
Radial Grid Type                 RadialGrid  ... Gauss-Chebyshev
Angular Grid (max. acc.)         AngularGrid ... Lebedev-194
Angular grid pruning method      GridPruning ... 3 (G Style)
Weight generation scheme         WeightScheme... Becke
Basis function cutoff            BFCut       ...    1.0000e-11
Integration weight cutoff        WCut        ...    1.0000e-14
Grids for H and He will be reduced by one unit

# of grid points (after initial pruning)     ...  39868 (   0.0 sec)
# of grid points (after weights+screening)   ...  36743 (   0.2 sec)
nearest neighbour list constructed           ...    0.0 sec
Grid point re-assignment to atoms done       ...    0.0 sec
Grid point division into batches done        ...    0.1 sec
Reduced shell lists constructed in    0.2 sec

Total number of grid points                  ...    36743
Total number of batches                      ...      583
Average number of points per batch           ...       63
Average number of grid points per atom       ...     2041
Average number of shells per batch           ...    91.85 (75.91%)
Average number of basis functions per batch  ...   213.26 (75.36%)
Average number of large shells per batch     ...    74.30 (80.89%)
Average number of large basis fcns per batch ...   171.11 (80.24%)
Maximum spatial batch extension              ...   2.57,  2.24,  2.16 au
Average spatial batch extension              ...   0.15,  0.14,  0.14 au

Time for grid setup =    0.675 sec

--------------
SCF ITERATIONS
--------------
ITER       Energy         Delta-E        Max-DP      RMS-DP      [F,P]     Damp
               ***  Starting incremental Fock matrix formation  ***
                      *** Initiating the SOSCF procedure ***
                      *** Re-Reading the Fockian *** 
                      *** Removing any level shift *** 
ITER      Energy       Delta-E        Grad      Rot      Max-DP    RMS-DP
  0   -306.12232704 -306.1223270400  0.000331  0.000331  0.000175  0.000005
               *** Restarting incremental Fock matrix formation ***
  1   -306.12232883  -0.0000017900  0.000041  0.000101  0.000061  0.000002
  2   -306.12232899  -0.0000001582  0.000008  0.000022  0.000025  0.000001
  3   -306.12232899  -0.0000000010  0.000009  0.000008  0.000013  0.000000
  4   -306.12232899  -0.0000000040  0.000005  0.000010  0.000014  0.000000
  5   -306.12232899   0.0000000001  0.000008  0.000007  0.000009  0.000000
                  ***Gradient check signals convergence***
              ***Rediagonalizing the Fockian in SOSCF/NRSCF***

               *****************************************************
               *                     SUCCESS                       *
               *           SCF CONVERGED AFTER   6 CYCLES          *
               *****************************************************

Setting up the final grid:

General Integration Accuracy     IntAcc      ...  5.010
Radial Grid Type                 RadialGrid  ... Gauss-Chebyshev
Angular Grid (max. acc.)         AngularGrid ... Lebedev-434
Angular grid pruning method      GridPruning ... 3 (G Style)
Weight generation scheme         WeightScheme... Becke
Basis function cutoff            BFCut       ...    1.0000e-11
Integration weight cutoff        WCut        ...    1.0000e-14
Grids for H and He will be reduced by one unit

# of grid points (after initial pruning)     ... 148282 (   0.0 sec)
# of grid points (after weights+screening)   ... 134805 (   0.8 sec)
nearest neighbour list constructed           ...    0.0 sec
Grid point re-assignment to atoms done       ...    0.0 sec
Grid point division into batches done        ...    1.0 sec
Reduced shell lists constructed in    1.3 sec

Total number of grid points                  ...   134805
Total number of batches                      ...     2115
Average number of points per batch           ...       63
Average number of grid points per atom       ...     7489
Average number of shells per batch           ...    91.36 (75.50%)
Average number of basis functions per batch  ...   212.58 (75.12%)
Average number of large shells per batch     ...    73.41 (80.35%)
Average number of large basis fcns per batch ...   169.62 (79.79%)
Maximum spatial batch extension              ...   2.00,  1.71,  2.00 au
Average spatial batch extension              ...   0.10,  0.09,  0.10 au

Final grid set up in    3.2 sec
Final integration                            ... done (   1.2 sec)
Change in XC energy                          ...     0.000148873
Integrated number of electrons               ...    54.000032124
Previous integrated no of electrons          ...    53.998201963
Total Energy       :         -306.12218012 Eh           -8330.00801 eV
  Last Energy change         ...   -1.9814e-09  Tolerance :   1.0000e-08
  Last MAX-Density change    ...    1.2204e-06  Tolerance :   1.0000e-07
             **** THE GBW FILE WAS UPDATED (2401_+.gbw) ****
             **** DENSITY FILE WAS UPDATED (2401_+.scfp.tmp) ****
             **** ENERGY FILE WAS UPDATED (2401_+.en.tmp) ****
Total SCF time: 0 days 0 hours 0 min 41 sec 
           ************************************************************
           *              Shut down parallel processing               *
           ************************************************************

-------------------------   --------------------
FINAL SINGLE POINT ENERGY      -306.122180122002
-------------------------   --------------------



           ************************************************************
           *        Program running with 8 parallel MPI-processes     *
           *              working on a common directory               *
           ************************************************************
------------------------------------------------------------------------------
                         ORCA SCF GRADIENT CALCULATION
------------------------------------------------------------------------------

Gradient of the Kohn-Sham DFT energy:
Kohn-Sham wavefunction type      ... RKS
Hartree-Fock exchange scaling    ...    0.250
Number of operators              ...    1
Number of atoms                  ...   18
Basis set dimensions             ...  283
Integral neglect threshold       ... 2.5e-11
Integral primitive cutoff        ... 2.5e-12

Nuclear repulsion gradient       ... done
One Electron Gradient            ... done
Pre-screening matrix             ... done
Starting the two electron gradient:
Two electron gradient done
Exchange-correlation gradient    ... done

------------------
CARTESIAN GRADIENT
------------------

   1   C   :    0.000120340    0.000030641    0.000135062
   2   C   :   -0.000010414   -0.000040997   -0.000100280
   3   C   :   -0.000010428   -0.000030945    0.000081113
   4   N   :   -0.000013884   -0.000005502   -0.000074038
   5   C   :   -0.000013241   -0.000057538    0.000120130
   6   C   :   -0.000093279    0.000146131   -0.000178488
   7   N   :    0.000064808   -0.000079456    0.000083041
   8   H   :   -0.000025980    0.000014813   -0.000040353
   9   H   :   -0.000024799   -0.000017436   -0.000019024
  10   H   :   -0.000041754   -0.000015979   -0.000022913
  11   H   :    0.000004995   -0.000020980    0.000012506
  12   H   :    0.000000870    0.000010089    0.000014420
  13   H   :   -0.000004477    0.000044845   -0.000024694
  14   H   :    0.000008478    0.000004796   -0.000004367
  15   H   :    0.000016670    0.000025358    0.000010717
  16   H   :   -0.000006643   -0.000007273    0.000020437
  17   H   :    0.000006474   -0.000001341   -0.000000982
  18   H   :    0.000022266    0.000000775   -0.000012286

Norm of the cartesian gradient     ...    0.000410309
RMS gradient                       ...    0.000055836
MAX gradient                       ...    0.000178488

-------
TIMINGS
-------

Total SCF gradient time            ...       29.834 sec

One electron gradient       ....       0.150 sec  (  0.5%)
Prescreening matrices       ....       0.242 sec  (  0.8%)
Two electron gradient       ....      25.281 sec  ( 84.7%)
XC gradient                 ....       3.447 sec  ( 11.6%)
           ************************************************************
           *              Shut down parallel processing               *
           ************************************************************
------------------------------------------------------------------------------
                         ORCA GEOMETRY RELAXATION STEP
------------------------------------------------------------------------------

Reading the OPT-File                    .... done
Getting information on internals        .... done
Copying old internal coords+grads       .... done
Making the new internal coordinates     .... (new redundants).... done
Validating the new internal coordinates .... (new redundants).... done
Calculating the B-matrix                .... done
Calculating the G,G- and P matrices     .... done
Transforming gradient to internals      .... done
Projecting the internal gradient        .... done
Number of atoms                         ....  18
Number of internal coordinates          ....  85
Current Energy                          ....  -306.122180122 Eh
Current gradient norm                   ....     0.000410309 Eh/bohr
Maximum allowed component of the step   ....  0.300
Current trust radius                    ....  0.300
Updating the Hessian (BFGS)             .... done
Forming the augmented Hessian           .... done
Diagonalizing the augmented Hessian     .... done
Last element of RFO vector              ....  0.999936172
Lowest eigenvalues of augmented Hessian:
 -0.000000894  0.005986419  0.011843640  0.012585442  0.012963608
Length of the computed step             ....  0.011299033
The final length of the internal step   ....  0.011299033
Converting the step to cartesian space:
 Initial RMS(Int)=    0.0012255522
Transforming coordinates:
 Iter   0:  RMS(Cart)=    0.0028834037 RMS(Int)=    0.0012247213
 Iter   1:  RMS(Cart)=    0.0000185409 RMS(Int)=    0.0000132586
 Iter   2:  RMS(Cart)=    0.0000091339 RMS(Int)=    0.0000065548
 Iter   3:  RMS(Cart)=    0.0000045680 RMS(Int)=    0.0000032774
 Iter   4:  RMS(Cart)=    0.0000022840 RMS(Int)=    0.0000016387
 Iter   5:  RMS(Cart)=    0.0000011420 RMS(Int)=    0.0000008194
 Iter   6:  RMS(Cart)=    0.0000005710 RMS(Int)=    0.0000004097
 Iter   7:  RMS(Cart)=    0.0000002855 RMS(Int)=    0.0000002048
 Iter   8:  RMS(Cart)=    0.0000001428 RMS(Int)=    0.0000001024
 Iter   9:  RMS(Cart)=    0.0000000714 RMS(Int)=    0.0000000512
done
Storing new coordinates                 .... done

                                .--------------------.
          ----------------------|Geometry convergence|---------------------
          Item                value                 Tolerance   Converged
          -----------------------------------------------------------------
          Energy change      -0.00000067            0.00000100      YES
          RMS gradient        0.00002036            0.00003000      YES
          MAX gradient        0.00009097            0.00010000      YES
          RMS step            0.00122555            0.00060000      NO
          MAX step            0.00384106            0.00100000      NO
          ....................................................
          Max(Bonds)      0.0003      Max(Angles)    0.04
          Max(Dihed)        0.22      Max(Improp)    0.00
          -----------------------------------------------------------------

       The energies and gradients are converged
       and the convergence on bond distances, angles, dihedrals and impropers
       is acceptable.
       Convergence will therefore be signaled now


                    ***********************HURRAY********************
                    ***        THE OPTIMIZATION HAS CONVERGED     ***
                    *************************************************


    ---------------------------------------------------------------------------
                         Redundant Internal Coordinates

                          --- Optimized Parameters ---  
                            (Angstroem and degrees)

        Definition                    OldVal   dE/dq     Step     FinalVal
    ----------------------------------------------------------------------------
     1. B(C   1,C   0)                1.5216 -0.000056  0.0003    1.5218   
     2. B(C   2,C   1)                1.5125  0.000001  0.0000    1.5125   
     3. B(N   3,C   2)                1.5079 -0.000034  0.0002    1.5081   
     4. B(C   4,N   3)                1.4978 -0.000009  0.0001    1.4978   
     5. B(C   5,C   4)                1.4513  0.000033 -0.0001    1.4512   
     6. B(N   6,C   5)                1.1478  0.000007 -0.0000    1.1478   
     7. B(H   7,C   0)                1.0897  0.000010 -0.0000    1.0897   
     8. B(H   8,C   0)                1.0918  0.000007 -0.0001    1.0918   
     9. B(H   9,C   0)                1.0919  0.000002  0.0000    1.0919   
    10. B(H  10,C   1)                1.0961  0.000004  0.0000    1.0962   
    11. B(H  11,C   1)                1.0960 -0.000010  0.0002    1.0962   
    12. B(H  12,C   2)                1.0915  0.000007 -0.0000    1.0915   
    13. B(H  13,C   2)                1.0920  0.000003  0.0000    1.0920   
    14. B(H  14,N   3)                1.0230  0.000006  0.0000    1.0230   
    15. B(H  15,N   3)                1.0241  0.000007  0.0000    1.0241   
    16. B(H  16,C   4)                1.0924  0.000002 -0.0001    1.0924   
    17. B(H  17,C   4)                1.0920 -0.000005  0.0001    1.0920   
    18. A(H   7,C   0,H   9)          107.70 -0.000057    0.04    107.73   
    19. A(C   1,C   0,H   8)          111.39  0.000019   -0.01    111.38   
    20. A(H   8,C   0,H   9)          108.30 -0.000024    0.00    108.30   
    21. A(H   7,C   0,H   8)          107.74 -0.000042    0.03    107.77   
    22. A(C   1,C   0,H   9)          111.47  0.000048   -0.03    111.44   
    23. A(C   1,C   0,H   7)          110.09  0.000050   -0.02    110.07   
    24. A(C   2,C   1,H  10)          109.83  0.000005    0.00    109.83   
    25. A(C   2,C   1,H  11)          109.58  0.000004   -0.01    109.58   
    26. A(C   0,C   1,H  10)          109.70  0.000008   -0.00    109.70   
    27. A(H  10,C   1,H  11)          107.22 -0.000013    0.01    107.23   
    28. A(C   0,C   1,C   2)          110.81 -0.000021    0.01    110.82   
    29. A(C   0,C   1,H  11)          109.63  0.000018   -0.01    109.62   
    30. A(H  12,C   2,H  13)          108.70 -0.000015    0.03    108.73   
    31. A(C   1,C   2,N   3)          110.77  0.000011   -0.01    110.76   
    32. A(N   3,C   2,H  13)          106.31 -0.000017    0.01    106.32   
    33. A(C   1,C   2,H  13)          112.19  0.000019   -0.02    112.18   
    34. A(N   3,C   2,H  12)          106.38  0.000016   -0.02    106.36   
    35. A(C   1,C   2,H  12)          112.16 -0.000015    0.01    112.16   
    36. A(H  14,N   3,H  15)          106.12  0.000001    0.00    106.13   
    37. A(C   4,N   3,H  15)          109.16 -0.000012    0.00    109.17   
    38. A(C   2,N   3,H  15)          108.52  0.000011   -0.01    108.51   
    39. A(C   4,N   3,H  14)          108.67 -0.000010    0.01    108.69   
    40. A(C   2,N   3,C   4)          115.22  0.000010   -0.01    115.21   
    41. A(C   2,N   3,H  14)          108.75  0.000000    0.00    108.75   
    42. A(N   3,C   4,H  17)          108.14  0.000037   -0.02    108.11   
    43. A(C   5,C   4,H  16)          110.40 -0.000004    0.01    110.41   
    44. A(N   3,C   4,H  16)          108.66  0.000003   -0.00    108.66   
    45. A(H  16,C   4,H  17)          108.86 -0.000007   -0.00    108.85   
    46. A(N   3,C   4,C   5)          109.95 -0.000014    0.01    109.96   
    47. A(C   5,C   4,H  17)          110.77 -0.000014    0.01    110.78   
    48. L(C   4,C   5,N   6,N   3, 2) 180.91  0.000091   -0.03    180.88   
    49. L(C   4,C   5,N   6,N   3, 1) 178.16  0.000017   -0.01    178.15   
    50. D(H  10,C   1,C   0,H   9)     60.68 -0.000006   -0.02     60.67   
    51. D(H  11,C   1,C   0,H   9)    178.17 -0.000007   -0.01    178.16   
    52. D(H  11,C   1,C   0,H   8)    -60.73  0.000009   -0.04    -60.77   
    53. D(H  10,C   1,C   0,H   7)    -58.77  0.000002   -0.03    -58.80   
    54. D(C   2,C   1,C   0,H   9)    -60.75 -0.000004   -0.02    -60.77   
    55. D(H  10,C   1,C   0,H   8)   -178.22  0.000010   -0.04   -178.27   
    56. D(C   2,C   1,C   0,H   8)     60.34  0.000012   -0.05     60.29   
    57. D(C   2,C   1,C   0,H   7)    179.80  0.000004   -0.04    179.76   
    58. D(H  11,C   1,C   0,H   7)     58.72  0.000001   -0.02     58.70   
    59. D(H  12,C   2,C   1,H  10)    177.13  0.000005    0.02    177.14   
    60. D(N   3,C   2,C   1,H  11)    -59.09 -0.000002    0.03    -59.07   
    61. D(N   3,C   2,C   1,H  10)     58.44 -0.000013    0.04     58.48   
    62. D(N   3,C   2,C   1,C   0)    179.80 -0.000013    0.04    179.84   
    63. D(H  12,C   2,C   1,H  11)     59.59  0.000016    0.00     59.60   
    64. D(H  13,C   2,C   1,H  11)   -177.72 -0.000000    0.03   -177.69   
    65. D(H  13,C   2,C   1,H  10)    -60.19 -0.000011    0.05    -60.14   
    66. D(H  13,C   2,C   1,C   0)     61.17 -0.000011    0.05     61.22   
    67. D(H  12,C   2,C   1,C   0)    -61.51  0.000005    0.02    -61.49   
    68. D(H  15,N   3,C   2,H  12)    -66.34 -0.000019    0.22    -66.12   
    69. D(H  15,N   3,C   2,C   1)     55.80 -0.000020    0.21     56.00   
    70. D(H  14,N   3,C   2,H  13)     62.90 -0.000009    0.19     63.09   
    71. D(H  14,N   3,C   2,H  12)    178.63 -0.000026    0.22    178.85   
    72. D(H  14,N   3,C   2,C   1)    -59.23 -0.000027    0.21    -59.02   
    73. D(C   4,N   3,C   2,H  13)    -59.35 -0.000002    0.18    -59.17   
    74. D(C   4,N   3,C   2,H  12)     56.38 -0.000020    0.21     56.59   
    75. D(H  15,N   3,C   2,H  13)    177.93 -0.000002    0.19    178.12   
    76. D(C   4,N   3,C   2,C   1)    178.51 -0.000021    0.20    178.71   
    77. D(H  16,C   4,N   3,C   2)    175.00  0.000000    0.04    175.05   
    78. D(C   5,C   4,N   3,H  15)     58.31  0.000001    0.04     58.35   
    79. D(C   5,C   4,N   3,H  14)    173.64 -0.000010    0.05    173.69   
    80. D(C   5,C   4,N   3,C   2)    -64.07 -0.000011    0.06    -64.01   
    81. D(H  17,C   4,N   3,H  15)    179.37 -0.000002    0.04    179.41   
    82. D(H  17,C   4,N   3,H  14)    -65.30 -0.000013    0.06    -65.25   
    83. D(H  17,C   4,N   3,C   2)     56.99 -0.000014    0.06     57.06   
    84. D(H  16,C   4,N   3,H  15)    -62.62  0.000012    0.03    -62.60   
    85. D(H  16,C   4,N   3,H  14)     52.70  0.000001    0.04     52.74   
    ----------------------------------------------------------------------------
                 *******************************************************
                 *** FINAL ENERGY EVALUATION AT THE STATIONARY POINT ***
                 ***               (AFTER    2 CYCLES)               ***
                 *******************************************************


           ************************************************************
           *        Program running with 8 parallel MPI-processes     *
           *              working on a common directory               *
           ************************************************************
           ************************************************************
           *              Shut down parallel processing               *
           ************************************************************


           ************************************************************
           *        Program running with 8 parallel MPI-processes     *
           *              working on a common directory               *
           ************************************************************
------------
SCF SETTINGS
------------
Hamiltonian:
 Density Functional     Method          .... DFT(GTOs)
 Exchange Functional    Exchange        .... PBE
   PBE kappa parameter  XKappa          ....  0.804000
 Correlation Functional Correlation     .... PBE
 LDA part of GGA corr.  LDAOpt          .... PW91-LDA
 Gradients option       PostSCFGGA      .... off
 Hybrid DFT is turned on
   Fraction HF Exchange ScalHFX         ....  0.250000
   Scaling of DF-GGA-X  ScalDFX         ....  0.750000
   Scaling of DF-GGA-C  ScalDFC         ....  1.000000
   Scaling of DF-LDA-C  ScalLDAC        ....  1.000000
   Perturbative correction              ....  0.000000
   NL short-range parameter             ....  6.900000


General Settings:
 Integral files         IntName         .... 2401_+
 Hartree-Fock type      HFTyp           .... RHF
 Total Charge           Charge          ....    1
 Multiplicity           Mult            ....    1
 Number of Electrons    NEL             ....   54
 Basis Dimension        Dim             ....  283
 Nuclear Repulsion      ENuc            ....    294.3771791116 Eh

Convergence Acceleration:
 DIIS                   CNVDIIS         .... on
   Start iteration      DIISMaxIt       ....    12
   Startup error        DIISStart       ....  0.200000
   # of expansion vecs  DIISMaxEq       ....     5
   Bias factor          DIISBfac        ....   1.050
   Max. coefficient     DIISMaxC        ....  10.000
 Newton-Raphson         CNVNR           .... off
 SOSCF                  CNVSOSCF        .... on
   Start iteration      SOSCFMaxIt      ....   150
   Startup grad/error   SOSCFStart      ....  0.003300
 Level Shifting         CNVShift        .... on
   Level shift para.    LevelShift      ....    0.2500
   Turn off err/grad.   ShiftErr        ....    0.0010
 Zerner damping         CNVZerner       .... off
 Static damping         CNVDamp         .... on
   Fraction old density DampFac         ....    0.7000
   Max. Damping (<1)    DampMax         ....    0.9800
   Min. Damping (>=0)   DampMin         ....    0.0000
   Turn off err/grad.   DampErr         ....    0.1000
 Fernandez-Rico         CNVRico         .... off

SCF Procedure:
 Maximum # iterations   MaxIter         ....   125
 SCF integral mode      SCFMode         .... Direct
   Integral package                     .... LIBINT
 Reset frequeny         DirectResetFreq ....    20
 Integral Threshold     Thresh          ....  2.500e-11 Eh
 Primitive CutOff       TCut            ....  2.500e-12 Eh

Convergence Tolerance:
 Convergence Check Mode ConvCheckMode   .... Total+1el-Energy
 Energy Change          TolE            ....  1.000e-08 Eh
 1-El. energy change                    ....  1.000e-05 Eh
 Orbital Gradient       TolG            ....  1.000e-05
 Orbital Rotation angle TolX            ....  1.000e-05
 DIIS Error             TolErr          ....  5.000e-07


Diagonalization of the overlap matrix:
Smallest eigenvalue                        ... 1.239e-04
Time for diagonalization                   ...    0.227 sec
Threshold for overlap eigenvalues          ... 1.000e-08
Number of eigenvalues below threshold      ... 0
Time for construction of square roots      ...    0.012 sec
Total time needed                          ...    0.239 sec

-------------------
DFT GRID GENERATION
-------------------

General Integration Accuracy     IntAcc      ...  4.340
Radial Grid Type                 RadialGrid  ... Gauss-Chebyshev
Angular Grid (max. acc.)         AngularGrid ... Lebedev-194
Angular grid pruning method      GridPruning ... 3 (G Style)
Weight generation scheme         WeightScheme... Becke
Basis function cutoff            BFCut       ...    1.0000e-11
Integration weight cutoff        WCut        ...    1.0000e-14
Grids for H and He will be reduced by one unit

# of grid points (after initial pruning)     ...  39868 (   0.0 sec)
# of grid points (after weights+screening)   ...  36739 (   0.2 sec)
nearest neighbour list constructed           ...    0.0 sec
Grid point re-assignment to atoms done       ...    0.0 sec
Grid point division into batches done        ...    0.1 sec
Reduced shell lists constructed in    0.1 sec

Total number of grid points                  ...    36739
Total number of batches                      ...      584
Average number of points per batch           ...       62
Average number of grid points per atom       ...     2041
Average number of shells per batch           ...    91.70 (75.79%)
Average number of basis functions per batch  ...   212.86 (75.22%)
Average number of large shells per batch     ...    74.42 (81.15%)
Average number of large basis fcns per batch ...   171.39 (80.52%)
Maximum spatial batch extension              ...   2.66,  1.97,  2.16 au
Average spatial batch extension              ...   0.15,  0.14,  0.14 au

Time for grid setup =    0.607 sec

--------------
SCF ITERATIONS
--------------
ITER       Energy         Delta-E        Max-DP      RMS-DP      [F,P]     Damp
               ***  Starting incremental Fock matrix formation  ***
                      *** Initiating the SOSCF procedure ***
                      *** Re-Reading the Fockian *** 
                      *** Removing any level shift *** 
ITER      Energy       Delta-E        Grad      Rot      Max-DP    RMS-DP
  0   -306.12231733 -306.1223173323  0.000711  0.000711  0.000390  0.000011
               *** Restarting incremental Fock matrix formation ***
  1   -306.12232564  -0.0000083075  0.000087  0.000214  0.000132  0.000005
  2   -306.12232638  -0.0000007432  0.000019  0.000041  0.000024  0.000001
  3   -306.12232640  -0.0000000125  0.000009  0.000009  0.000016  0.000000
  4   -306.12232640  -0.0000000035  0.000004  0.000005  0.000007  0.000000
  5   -306.12232640  -0.0000000008  0.000003  0.000005  0.000008  0.000000
  6   -306.12232640  -0.0000000007  0.000004  0.000003  0.000004  0.000000
                  ***Gradient check signals convergence***
              ***Rediagonalizing the Fockian in SOSCF/NRSCF***

               *****************************************************
               *                     SUCCESS                       *
               *           SCF CONVERGED AFTER   7 CYCLES          *
               *****************************************************

Setting up the final grid:

General Integration Accuracy     IntAcc      ...  5.010
Radial Grid Type                 RadialGrid  ... Gauss-Chebyshev
Angular Grid (max. acc.)         AngularGrid ... Lebedev-434
Angular grid pruning method      GridPruning ... 3 (G Style)
Weight generation scheme         WeightScheme... Becke
Basis function cutoff            BFCut       ...    1.0000e-11
Integration weight cutoff        WCut        ...    1.0000e-14
Grids for H and He will be reduced by one unit

# of grid points (after initial pruning)     ... 148282 (   0.0 sec)
# of grid points (after weights+screening)   ... 134806 (   0.9 sec)
nearest neighbour list constructed           ...    0.0 sec
Grid point re-assignment to atoms done       ...    0.1 sec
Grid point division into batches done        ...    1.2 sec
Reduced shell lists constructed in    1.6 sec

Total number of grid points                  ...   134806
Total number of batches                      ...     2114
Average number of points per batch           ...       63
Average number of grid points per atom       ...     7489
Average number of shells per batch           ...    91.34 (75.49%)
Average number of basis functions per batch  ...   212.55 (75.11%)
Average number of large shells per batch     ...    73.39 (80.34%)
Average number of large basis fcns per batch ...   169.56 (79.77%)
Maximum spatial batch extension              ...   2.01,  1.71,  2.00 au
Average spatial batch extension              ...   0.10,  0.10,  0.10 au

Final grid set up in    2.9 sec
Final integration                            ... done (   1.1 sec)
Change in XC energy                          ...     0.000145687
Integrated number of electrons               ...    54.000034052
Previous integrated no of electrons          ...    53.998179336
Total Energy       :         -306.12218071 Eh           -8330.00803 eV
  Last Energy change         ...   -3.0559e-10  Tolerance :   1.0000e-08
  Last MAX-Density change    ...    1.4077e-06  Tolerance :   1.0000e-07
             **** THE GBW FILE WAS UPDATED (2401_+.gbw) ****
             **** DENSITY FILE WAS UPDATED (2401_+.scfp.tmp) ****
             **** ENERGY FILE WAS UPDATED (2401_+.en.tmp) ****
Total SCF time: 0 days 0 hours 0 min 45 sec 
           ************************************************************
           *              Shut down parallel processing               *
           ************************************************************

-------------------------   --------------------
FINAL SINGLE POINT ENERGY      -306.122180713924
-------------------------   --------------------

                                *** OPTIMIZATION RUN DONE ***

                            ***************************************
                            *     ORCA property calculations      *
                            ***************************************

                                    ---------------------
                                    Active property flags
                                    ---------------------




           ************************************************************
           *        Program running with 8 parallel MPI-processes     *
           *              working on a common directory               *
           ************************************************************

-------------------------------------------------------------------------------
                               ORCA SCF HESSIAN
-------------------------------------------------------------------------------

Hessian of the Kohn-Sham DFT energy:
Kohn-Sham wavefunction type                      ... RKS
Hartree-Fock exchange scaling                    ...    0.250
Number of operators                              ...    1
Number of atoms                                  ...   18
Basis set dimensions                             ...  283
Integral neglect threshold                       ... 2.5e-11
Integral primitive cutoff                        ... 2.5e-12

Setting up DFT Hessian calculations              ... 
Electron density on the grid                     ... found on disk
Electron density on the final grid               ... found on disk
Building xc-kernel on the grid                   ... done   (      0.0 sec)
Building xc-kernel on the final grid             ... done   (      0.1 sec)
                                                     done   (      0.7 sec)

Nuclear repulsion Hessian                        ... done   (      0.0 sec)

----------------------------------------------
Forming right-hand sides of CP-SCF equations     ...
----------------------------------------------
One electron integral derivatives                ... done   (      0.3 sec)
Transforming the overlap derivative matrices     ... done   (      0.3 sec)
Making the Q(x) pseudodensities                  ... done   (      0.3 sec)
Adding the E*S(x)*S(y) terms to the Hessian      ... done   (      0.0 sec)
Calculating energy weighted overlap derivatives  ... done   (      0.0 sec)
Two electron integral derivatives                ... done   (     39.0 sec)
Exchange-correlation integral derivatives        ... done   (     49.9 sec)
tr(F(y)Q(x)) contribution to the Hessian         ... done   (      0.0 sec)
Response fock operator R(S(x))                   ... done   (    135.1 sec)
XC Response fock operator R(S(x))                ... done   (     26.2 sec)
tr(F(y)S(x)) contribution to the Hessian         ... done   (      0.0 sec)
Transforming and finalizing RHSs                 ... done   (      0.1 sec)

----------------------------------------------
Solving the CP-SCF equations                     ...
----------------------------------------------
     CP-SCF ITERATION   0: 
     CP-SCF ITERATION   1:      0.000688194
     CP-SCF ITERATION   2:      0.000138474
     CP-SCF ITERATION   3:      0.000009337
     CP-SCF ITERATION   4:      0.000000944
     CP-SCF ITERATION   5:      0.000000039
     CP-SCF ITERATION   6:      0.000000010

                                                 ... done   (   1194.8 sec)
Forming perturbed density Hessian contributions  ... done   (      0.2 sec)
Making the perturbed densities                   ... done   (      0.0 sec)
2nd integral derivative contribs                 ... done   (    194.8 sec)
Exchange-correlation Hessian                     ... done   (     26.5 sec)
Dipol derivatives                                ... done   (      9.0 sec)

Total SCF Hessian time: 0 days 0 hours 27 min 58 sec 

Writing the Hessian file to the disk             ... done

           ************************************************************
           *              Shut down parallel processing               *
           ************************************************************

-----------------------
VIBRATIONAL FREQUENCIES
-----------------------

   0:         0.00 cm**-1
   1:         0.00 cm**-1
   2:         0.00 cm**-1
   3:         0.00 cm**-1
   4:         0.00 cm**-1
   5:         0.00 cm**-1
   6:        65.19 cm**-1
   7:        68.00 cm**-1
   8:       131.05 cm**-1
   9:       172.88 cm**-1
  10:       205.26 cm**-1
  11:       241.78 cm**-1
  12:       358.45 cm**-1
  13:       370.24 cm**-1
  14:       391.88 cm**-1
  15:       590.82 cm**-1
  16:       759.66 cm**-1
  17:       808.23 cm**-1
  18:       872.95 cm**-1
  19:       895.63 cm**-1
  20:       934.67 cm**-1
  21:       978.37 cm**-1
  22:      1016.67 cm**-1
  23:      1031.89 cm**-1
  24:      1066.07 cm**-1
  25:      1142.51 cm**-1
  26:      1172.29 cm**-1
  27:      1238.45 cm**-1
  28:      1276.68 cm**-1
  29:      1331.54 cm**-1
  30:      1340.24 cm**-1
  31:      1372.78 cm**-1
  32:      1400.90 cm**-1
  33:      1413.28 cm**-1
  34:      1425.29 cm**-1
  35:      1440.30 cm**-1
  36:      1469.14 cm**-1
  37:      1481.11 cm**-1
  38:      1491.08 cm**-1
  39:      1493.62 cm**-1
  40:      1506.62 cm**-1
  41:      1644.74 cm**-1
  42:      2403.91 cm**-1
  43:      3035.37 cm**-1
  44:      3065.73 cm**-1
  45:      3076.47 cm**-1
  46:      3089.41 cm**-1
  47:      3091.52 cm**-1
  48:      3140.56 cm**-1
  49:      3144.93 cm**-1
  50:      3152.40 cm**-1
  51:      3157.98 cm**-1
  52:      3423.69 cm**-1
  53:      3477.32 cm**-1


------------
NORMAL MODES
------------

These modes are the cartesian displacements weighted by the diagonal matrix
M(i,i)=1/sqrt(m[i]) where m[i] is the mass of the displaced atom
Thus, these vectors are normalized but *not* orthogonal

                  0          1          2          3          4          5    
      0       0.000000   0.000000   0.000000   0.000000   0.000000   0.000000
[...]
     31      -0.062792  -0.504960  -0.162619  -0.009266   0.406515   0.028630
     32       0.021084   0.154615   0.003300   0.046922  -0.062447  -0.010736
     33      -0.020998  -0.292535  -0.127000  -0.026505   0.299876   0.016876
     34       0.004052  -0.025012  -0.010481   0.011261   0.031559   0.003256
     35       0.057146   0.440581   0.096887  -0.047671  -0.286902  -0.024535
     36      -0.027726  -0.003221  -0.096992   0.029736  -0.130101  -0.001211
     37      -0.009759   0.180191   0.481156   0.020837   0.379775  -0.004321
     38      -0.020847  -0.055488  -0.191573   0.023244  -0.195079   0.005373
     39      -0.071288   0.107977   0.225280  -0.029755   0.130360   0.000741
     40      -0.019498   0.016072   0.001814  -0.005312  -0.011673  -0.003675
     41      -0.051290  -0.147947  -0.462910  -0.031591  -0.419097   0.008114
     42       0.049443   0.012893   0.020944  -0.018087   0.006256  -0.039027
     43       0.005633   0.028569   0.010003  -0.001182  -0.012543   0.669263
     44       0.026898   0.005159   0.020166  -0.016370   0.017291  -0.209955
     45       0.044365   0.020784   0.001090   0.017259  -0.017598   0.395632
     46       0.004696  -0.000447  -0.008776   0.002924  -0.013337   0.011458
     47       0.051479  -0.013064   0.005391   0.016978   0.015316  -0.585067
     48      -0.050938   0.010946   0.018897  -0.003410  -0.002454   0.011012
     49       0.693011  -0.049654  -0.008244   0.007864   0.011771   0.019471
     50       0.083176  -0.007756  -0.007739   0.001925  -0.000801   0.007261
     51       0.281839  -0.009560   0.028463  -0.001021   0.040576  -0.003246
     52       0.110864  -0.005602   0.006806  -0.001057   0.012815  -0.004908
     53       0.620895  -0.052116  -0.024578   0.008619   0.004032   0.009241
                 42         43         44         45         46         47    
      0       0.000047  -0.000984   0.020492   0.007975   0.000876   0.000315
      1      -0.000036  -0.003999  -0.013773  -0.011558   0.001758   0.000170
      2       0.000037   0.005650   0.044663  -0.007477   0.002739   0.000181
      3      -0.000067   0.017177  -0.002813  -0.047006   0.003342  -0.000081
      4      -0.000043   0.041315  -0.002534   0.066708  -0.010099  -0.000756
      5      -0.000344  -0.050755   0.004024   0.039634   0.000933   0.000797
      6      -0.000416  -0.003102   0.000802   0.006023  -0.018130  -0.003170
      7      -0.000115  -0.004629   0.002370  -0.014959  -0.045813  -0.009417
      8       0.000298   0.003727  -0.002652  -0.002444   0.044332   0.009067
      9       0.007435   0.000272   0.000080  -0.000392   0.000583  -0.000340
     10       0.002919   0.000309   0.000030   0.000767   0.000925   0.001388
     11      -0.001840  -0.000134   0.000030   0.000234  -0.001054   0.000656
     12       0.066942   0.000080  -0.000034   0.000109   0.001818  -0.010822
     13      -0.032575   0.000133  -0.000216   0.001006   0.009793  -0.045904
     14      -0.077693   0.000246  -0.000154   0.000601   0.009481  -0.047866
     15      -0.492570  -0.000052   0.000005   0.000026  -0.000133   0.001401
     16       0.255208  -0.000008   0.000002   0.000024   0.000065  -0.000377
     17       0.578158   0.000009   0.000001   0.000016   0.000219  -0.001335
     18       0.355612   0.000003   0.000003   0.000027   0.000114  -0.001195
     19      -0.188655  -0.000005   0.000002  -0.000014  -0.000080   0.000457
     20      -0.421139  -0.000003   0.000001  -0.000013  -0.000236   0.001213
     21      -0.000175  -0.000722  -0.366827   0.008305  -0.029615  -0.004784
     22      -0.000133   0.000386  -0.276494  -0.000698  -0.020543  -0.003429
     23      -0.000334  -0.001493   0.026534  -0.003147   0.001065   0.000118
     24      -0.000343   0.038434   0.329418  -0.071920   0.021700   0.001441
     25      -0.000102  -0.020322  -0.157291   0.030336  -0.010340  -0.000776
     26       0.000002  -0.057869  -0.492102   0.106448  -0.034641  -0.002632
     27       0.000018  -0.023962  -0.198787  -0.034240  -0.004752  -0.000959
     28      -0.000133   0.067167   0.597548   0.111546   0.010054   0.002248
     29       0.000101  -0.005180  -0.056283  -0.012505  -0.001951  -0.000434
     30       0.001178  -0.399335   0.039598   0.382590   0.004135   0.006558
     31       0.000907   0.174503  -0.017000  -0.149194  -0.000671  -0.002357
     32       0.000233   0.553240  -0.054763  -0.541608  -0.002624  -0.008698
     33      -0.000398   0.196745  -0.014117   0.183327  -0.034700  -0.003179
     34       0.000345  -0.662665   0.047125  -0.652220   0.128284   0.013287
     35      -0.000116   0.047022  -0.002974   0.065219  -0.011198  -0.000969
     36      -0.001095   0.039090  -0.021537  -0.029899   0.388076   0.077326
     37      -0.000778  -0.017283   0.010563   0.011730  -0.163432  -0.032692
     38      -0.000940  -0.048866   0.030100   0.043564  -0.489076  -0.097378
     39       0.000249  -0.017451   0.012100  -0.045871  -0.179675  -0.038514
     40       0.002316   0.065665  -0.039084   0.170553   0.696395   0.145418
     41      -0.001522  -0.001991   0.002479  -0.010926  -0.029942  -0.007572
     42      -0.004163   0.000647   0.000062   0.000532  -0.009012  -0.002617
     43      -0.016539   0.003532  -0.000900  -0.002460   0.003565  -0.005106
     44      -0.008879   0.005393  -0.001593  -0.006733   0.008434  -0.004841
     45      -0.009244   0.005574  -0.001253   0.004667  -0.000999   0.004914
     46      -0.003544  -0.003978   0.001314  -0.008082  -0.014215  -0.010854
     47       0.010942   0.001637  -0.000365   0.002740  -0.002436   0.001817
     48       0.026193   0.000825   0.001052  -0.004447  -0.056812   0.297631
     49      -0.034195   0.000542  -0.000361   0.001873   0.020632  -0.096245
     50      -0.034251  -0.000113   0.002200  -0.009628  -0.126297   0.646415
     51       0.019781   0.000014  -0.000729   0.003731   0.037659  -0.169247
     52      -0.017716  -0.002752   0.002752  -0.015022  -0.133649   0.635534
     53      -0.050860   0.000132  -0.000385   0.002113   0.019017  -0.085228
                 48         49         50         51         52         53    
      0      -0.044540   0.001103  -0.007758   0.065758  -0.000068   0.000054
      1       0.067700  -0.001159   0.015197   0.058462  -0.000045  -0.000091
      2       0.038954  -0.000873   0.007371  -0.027669   0.000025  -0.000052
      3      -0.006839   0.000478  -0.009582   0.001602   0.000181   0.000508
      4       0.009869  -0.000638   0.013577   0.001988   0.000664  -0.000615
      5       0.005667  -0.000212   0.008096  -0.003167  -0.000510  -0.000444
      6       0.011842   0.000837  -0.049355   0.000705   0.000606  -0.001331
      7      -0.015194  -0.000192   0.065223  -0.001039  -0.001287   0.001921
      8      -0.010670  -0.000601   0.043615  -0.001589   0.001849   0.001241
      9      -0.000387   0.000526   0.001491  -0.000120  -0.011752  -0.042799
     10       0.000496  -0.001614  -0.001957   0.000000  -0.043610   0.056288
     11       0.000313   0.000602  -0.001122  -0.000012   0.038485   0.040321
     12      -0.000710  -0.038508  -0.000419   0.000112   0.000124  -0.000147
     13       0.001174   0.065563   0.000585  -0.000185  -0.001224   0.001047
     14      -0.001068  -0.057808  -0.000836   0.000200   0.000816   0.000066
     15      -0.000002  -0.000289   0.000001   0.000005   0.000203   0.000539
     16      -0.000008   0.000356   0.000083  -0.000006   0.000229   0.000028
     17      -0.000020  -0.000278   0.000077  -0.000015  -0.000019  -0.000233
     18       0.000021  -0.000011  -0.000091   0.000001   0.000038  -0.000049
     19       0.000004   0.000090  -0.000032   0.000004  -0.000111  -0.000000
     20       0.000009  -0.000177  -0.000065   0.000012  -0.000071   0.000003
     21      -0.037430  -0.001394  -0.021996  -0.712365  -0.000669  -0.000003
     22      -0.004536  -0.001473  -0.013334  -0.525345  -0.000138  -0.000089
     23       0.010311  -0.000037   0.002080   0.032856  -0.000511  -0.000096
     24       0.359044  -0.007720   0.068911  -0.175330  -0.000276  -0.000665
     25      -0.158741   0.003526  -0.030882   0.099815   0.000181   0.000145
     26      -0.548925   0.011904  -0.109348   0.278299   0.000375   0.000859
     27       0.209248  -0.003887   0.047342   0.106665   0.000218  -0.000149
     28      -0.643340   0.012019  -0.139496  -0.271778  -0.000747   0.000951
     29       0.074950  -0.001499   0.017688   0.022912   0.000044  -0.000142
     30       0.050009  -0.002957   0.080067  -0.021667  -0.000762  -0.001923
     31      -0.022269   0.001008  -0.028965   0.008717   0.000897   0.002167
     32      -0.078871   0.004047  -0.107542   0.033127   0.002556   0.004017
     33       0.030431  -0.002148   0.034152   0.008574   0.002324  -0.002309
     34      -0.094311   0.005774  -0.129763  -0.027895  -0.003795   0.003729
     35       0.012066  -0.000678   0.011363   0.003835   0.000660  -0.000066
     36      -0.104387  -0.006646   0.438979  -0.014131   0.003717   0.009248
     37       0.041474   0.003116  -0.164198   0.004782  -0.001747  -0.005435
     38       0.135105   0.008450  -0.549668   0.015865  -0.011038  -0.017100
     39      -0.035890   0.001558   0.144392  -0.001812  -0.006323   0.006644
     40       0.138529  -0.000622  -0.607174   0.004470   0.015779  -0.017513
     41      -0.008990   0.001003   0.034336  -0.000943  -0.004731   0.001872
     42       0.004404   0.002592  -0.017622   0.000423   0.348141   0.450913
     43      -0.001774  -0.001690   0.005022   0.000247  -0.165932  -0.195275
     44      -0.004366  -0.003501   0.008240   0.000695  -0.469802  -0.623142
     45       0.000848  -0.012596   0.001094   0.000631  -0.192150   0.137522
     46      -0.005622   0.018658   0.018349  -0.000879   0.764822  -0.582374
     47      -0.000048  -0.003705   0.004835   0.000250  -0.065247   0.067052
     48       0.004981   0.275214   0.004433  -0.001235  -0.004548   0.000009
     49      -0.001272  -0.077977  -0.001858   0.000247   0.001045  -0.000832
     50       0.011255   0.611225   0.009198  -0.002476  -0.009649  -0.001751
     51       0.003440   0.184316   0.000482  -0.000534   0.000627   0.000622
     52      -0.012239  -0.702923  -0.008063   0.001911   0.016986  -0.014920
     53       0.001462   0.079122   0.000350  -0.000273  -0.002195   0.001264


-----------
IR SPECTRUM
-----------

 Mode    freq (cm**-1)   T**2         TX         TY         TZ
-------------------------------------------------------------------
   6:        65.19    3.455017  (  0.117442  -1.743136   0.634588)
   7:        68.00    8.380363  (  1.441465   0.869287   2.355182)
   8:       131.05    2.526254  ( -1.036321  -0.910657  -0.789302)
   9:       172.88    0.346679  ( -0.484642   0.178062   0.283011)
  10:       205.26    5.891351  ( -2.073274   0.159968   1.251918)
  11:       241.78    0.801095  (  0.670340  -0.369310  -0.464058)
  12:       358.45    1.840665  ( -1.092147  -0.594010  -0.543170)
  13:       370.24    1.208571  (  0.723357   0.631279   0.535548)
  14:       391.88    4.556583  ( -1.286822  -0.231583  -1.687318)
  15:       590.82    4.335914  (  1.887242  -0.125730  -0.870875)
  16:       759.66    7.420083  ( -1.472753   1.988581   1.138696)
  17:       808.23    2.849836  ( -1.390358   0.955197  -0.065882)
  18:       872.95    7.643421  (  2.082144  -0.695941   1.680406)
  19:       895.63    3.512426  (  1.483934  -0.376429   1.081049)
  20:       934.67    3.031081  (  1.676481   0.469260  -0.016984)
  21:       978.37    9.279283  (  0.263436   2.083527   2.206536)
  22:      1016.67    0.508950  (  0.363647  -0.513582  -0.336072)
  23:      1031.89   34.583357  (  5.685792   1.491401   0.175625)
  24:      1066.07    3.644201  (  0.973368  -0.250793   1.622917)
  25:      1142.51    6.844820  ( -2.235145  -0.885292  -1.032087)
  26:      1172.29    3.223591  ( -0.183079  -1.348485  -1.171179)
  27:      1238.45    0.118722  (  0.319852  -0.064411  -0.110764)
  28:      1276.68   15.274156  (  2.807012   1.675379   2.141949)
  29:      1331.54    3.790454  ( -1.118980  -0.786267  -1.385685)
  30:      1340.24    2.039874  ( -0.435848   1.351031   0.156925)
  31:      1372.78    7.826667  (  2.689397  -0.769549  -0.040047)
  32:      1400.90    2.398343  (  0.866002   0.661242   1.100519)
  33:      1413.28   23.609860  ( -4.560332  -0.579698  -1.573906)
  34:      1425.29   15.890570  (  3.748559  -0.912914   1.002727)
  35:      1440.30   35.356646  (  3.143474   0.955625   4.956006)
  36:      1469.14   26.842412  (  0.945046   3.380948   3.810314)
  37:      1481.11    7.129856  (  2.454746   0.713298   0.771547)
  38:      1491.08    0.156473  (  0.355504   0.107374   0.136239)
  39:      1493.62   14.148880  (  1.963857  -2.748142  -1.655252)
  40:      1506.62   16.384063  (  2.082965   2.825101  -2.015967)
  41:      1644.74   56.057920  (  2.724569   4.729070  -5.125480)
  42:      2403.91    7.738152  (  2.144562  -0.429166  -1.718960)
  43:      3035.37   13.312106  ( -0.718851   1.201676  -3.369174)
  44:      3065.73    7.268994  (  0.765988  -1.040579   2.366316)
  45:      3076.47    5.071728  ( -1.384306   1.419186   1.068333)
  46:      3089.41    3.057882  ( -0.660801  -1.618925   0.017517)
  47:      3091.52    2.353227  (  0.605694   0.723286   1.209636)
  48:      3140.56    8.623540  ( -1.544849   2.142838   1.282664)
  49:      3144.93    7.002262  (  0.892168  -1.835397   1.684523)
  50:      3152.40    1.871872  ( -0.398341   1.252242   0.380900)
  51:      3157.98    2.966923  (  1.043881   1.110817  -0.802073)
  52:      3423.69   52.035125  (  1.597312   4.785521  -5.155823)
  53:      3477.32   76.372324  (  4.575632  -5.994358  -4.416288)

The first frequency considered to be a vibration is 6
The total number of vibrations considered is 48


--------------------------
THERMOCHEMISTRY AT 298.15K
--------------------------

Temperature         ... 298.15 K
Pressure            ... 1.00 atm
Total Mass          ... 99.16 AMU

Throughout the following assumptions are being made:
  (1) The electronic state is orbitally nondegenerate
  (2) There are no thermally accessible electronically excited states
  (3) Hindered rotations indicated by low frequency modes) are not
      treated as such but are treated as vibrations and this may
      case some error
  (4) All equations used are the standard statistical mechanics
      equations for an ideal gas
  (5) All vibrations are strinctly harmonic


------------
INNER ENERGY
------------

The inner energy is: U= E(el) + E(ZPE) + E(vib) + E(rot) + E(trans)
    E(el)   - is the total energy from the electronic structure calculation
              = E(kin-el) + E(nuc-el) + E(el-el) + E(nuc-nuc)
    E(ZPE)  - the the zero temperature vibrational energy from the frequency calculation
    E(vib)  - the the finite temperature correction to E(ZPE) due to population
              of excietd vibrational states
    E(rot)  - is the rotational thermal energy
    E(trans)- is the translational thermal energy

Summary of contributions to the inner energy U:
Electronic energy                ...   -306.12218071 Eh
Zero point energy                ...      0.16370810 Eh     102.73 kcal/mol
Thermal vibrational correction   ...      0.00572218 Eh       3.59 kcal/mol
Thermal rotational correction    ...      0.00141627 Eh       0.89 kcal/mol
Thermal translational correction ...      0.00141627 Eh       0.89 kcal/mol
-----------------------------------------------------------------------
Total thermal energy                   -305.94991789 Eh


Summary of corrections to the electronic energy:
(perhaps to be used in another calculation)
Total thermal correction                  0.00855473 Eh       5.37 kcal/mol
Non-thermal (ZPE) correction              0.16370810 Eh     102.73 kcal/mol
-----------------------------------------------------------------------
Total correction                          0.17226283 Eh     108.10 kcal/mol


--------
ENTHALPY
--------

The enthalpy is H = U + kB*T
                kB is Boltzmann's constant
Total free energy                 ...   -305.94991789 Eh 
Thermal Enthalpy correction       ...      0.00094421 Eh       0.59 kcal/mol
-----------------------------------------------------------------------
Total Enthalpy                    ...   -305.94897368 Eh


-------
ENTROPY
-------

The entropy contributions are T*S = T*(S(el)+S(vib)+S(rot)+S(trans)
     S(el)   - electronic entropy
     S(vib)  - vibrational entropy
     S(rot)  - rotational entropy
     S(trans)- translational entropy
The entropies will be listed as mutliplied by the temperature to get
units of energy

Electronic entropy                ...      0.00000000 Eh      0.00 kcal/mol
Vibrational entropy               ...      0.01090552 Eh      6.84 kcal/mol
Rotational entropy                ...      0.01240780 Eh      7.79 kcal/mol
Translational entropy             ...      0.01885925 Eh     11.83 kcal/mol
-----------------------------------------------------------------------
Final entropy term                ...      0.04217256 Eh     26.46 kcal/mol


CAUTION: The rotational entropy is not quite correctly treated here
         because it includes a symmetry number that is not yet correctly
         implemented in ORCA!
For a nonlinear molecule the correct rotational entropy is:
    S(rot) = R*(ln(qrot/sn)+1.5)
    R    = 8.31441 J/mol/K = 1.987191683e-3 kcal/mol/K
    qrot = 341104.7193515
    sn is the rotational symmetry number. We have assumed 3 here
       if it is different for your molecule then you should correct
       the printed rotational entropy by manually evaluating the equation
       as given above

For convenience we print out the resulting values for sn=1 - 12:
 sn= 1  qrot/sn=  341104.7194 T*S(rot)=     8.44 kcal/mol T*S(tot)=    27.11 kcal/mol
 sn= 2  qrot/sn=  170552.3597 T*S(rot)=     8.03 kcal/mol T*S(tot)=    26.70 kcal/mol
 sn= 3  qrot/sn=  113701.5731 T*S(rot)=     7.79 kcal/mol T*S(tot)=    26.46 kcal/mol
 sn= 4  qrot/sn=   85276.1798 T*S(rot)=     7.62 kcal/mol T*S(tot)=    26.29 kcal/mol
 sn= 5  qrot/sn=   68220.9439 T*S(rot)=     7.48 kcal/mol T*S(tot)=    26.16 kcal/mol
 sn= 6  qrot/sn=   56850.7866 T*S(rot)=     7.38 kcal/mol T*S(tot)=    26.05 kcal/mol
 sn= 7  qrot/sn=   48729.2456 T*S(rot)=     7.28 kcal/mol T*S(tot)=    25.96 kcal/mol
 sn= 8  qrot/sn=   42638.0899 T*S(rot)=     7.20 kcal/mol T*S(tot)=    25.88 kcal/mol
 sn= 9  qrot/sn=   37900.5244 T*S(rot)=     7.14 kcal/mol T*S(tot)=    25.81 kcal/mol
 sn=10  qrot/sn=   34110.4719 T*S(rot)=     7.07 kcal/mol T*S(tot)=    25.75 kcal/mol
 sn=11  qrot/sn=   31009.5199 T*S(rot)=     7.02 kcal/mol T*S(tot)=    25.69 kcal/mol
 sn=12  qrot/sn=   28425.3933 T*S(rot)=     6.96 kcal/mol T*S(tot)=    25.64 kcal/mol


-------------------
GIBBS FREE ENTHALPY
-------------------

The Gibbs free enthalpy is G = H - T*S

Total enthalpy                    ...   -305.94897368 Eh 
Total entropy correction          ...     -0.04217256 Eh    -26.46 kcal/mol
-----------------------------------------------------------------------
Final Gibbs free enthalpy         ...   -305.99114624 Eh

For completeness - the Gibbs free enthalpy minus the electronic energy
G-E(el)                           ...      0.13103447 Eh     82.23 kcal/mol


Timings for individual modules:

Sum of individual times         ...     1915.816 sec (=  31.930 min)
GTO integral calculation        ...        6.442 sec (=   0.107 min)   0.3 %
SCF iterations                  ...      166.779 sec (=   2.780 min)   8.7 %
SCF Gradient evaluation         ...       62.499 sec (=   1.042 min)   3.3 %
Geometry relaxation             ...        0.144 sec (=   0.002 min)   0.0 %
Analytical frequency calculation...     1679.952 sec (=  27.999 min)  87.7 %
                             ****ORCA TERMINATED NORMALLY****
TOTAL RUN TIME: 0 days 0 hours 31 minutes 57 seconds 453 msec
