
                                 *****************
                                 * O   R   C   A *
                                 *****************

           --- An Ab Initio, DFT and Semiempirical electronic structure package ---

                  #######################################################
                  #                        -***-                        #
                  #  Department of molecular theory and spectroscopy    #
                  #              Directorship: Frank Neese              #
                  # Max Planck Institute for Chemical Energy Conversion #
                  #                  D-45470 Muelheim/Ruhr              #
                  #                       Germany                       #
                  #                                                     #
                  #                  All rights reserved                #
                  #                        -***-                        #
                  #######################################################


                         Program Version 3.0.3 - RELEASE   -


 With contributions from (in alphabetic order):
   Ute Becker             : Parallelization
   Dmytro Bykov           : SCF Hessian
   Dmitry Ganyushin       : Spin-Orbit,Spin-Spin,Magnetic field MRCI
   Andreas Hansen         : Spin unrestricted coupled pair/coupled cluster methods
   Dimitrios Liakos       : Extrapolation schemes; parallel MDCI
   Robert Izsak           : Overlap fitted RIJCOSX, COSX-SCS-MP3
   Christian Kollmar      : KDIIS, OOCD, Brueckner-CCSD(T), CCSD density
   Simone Kossmann        : Meta GGA functionals, TD-DFT gradient, OOMP2, MP2 Hessian
   Taras Petrenko         : DFT Hessian,TD-DFT gradient, ASA and ECA modules, normal mode analysis, Resonance Raman, ABS, FL, XAS/XES, NRVS
   Christoph Reimann      : Effective Core Potentials
   Michael Roemelt        : Restricted open shell CIS
   Christoph Riplinger    : Improved optimizer, TS searches, QM/MM, DLPNO-CCSD
   Barbara Sandhoefer     : DKH picture change effects
   Igor Schapiro          : Molecular dynamics
   Kantharuban Sivalingam : CASSCF convergence, NEVPT2
   Boris Wezisla          : Elementary symmetry handling
   Frank Wennmohs         : Technical directorship


 We gratefully acknowledge several colleagues who have allowed us to
 interface, adapt or use parts of their codes:
   Stefan Grimme, W. Hujo, H. Kruse, T. Risthaus : VdW corrections, initial TS optimization,
                                                   DFT functionals, gCP
   Ed Valeev                                     : LibInt (2-el integral package), F12 methods
   Garnet Chan, S. Sharma, R. Olivares           : DMRG
   Ulf Ekstrom                                   : XCFun DFT Library
   Mihaly Kallay                                 : mrcc  (arbitrary order and MRCC methods)
   Andreas Klamt, Michael Diedenhofen            : otool_cosmo (COSMO solvation model)
   Frank Weinhold                                : gennbo (NPA and NBO analysis)
   Christopher J. Cramer and Donald G. Truhlar   : smd solvation model


 Your calculation uses the libint2 library for the computation of 2-el integrals
 For citations please refer to: http://libint.valeyev.net

 This ORCA versions uses:
   CBLAS   interface :  Fast vector & matrix operations
   LAPACKE interface :  Fast linear algebra routines
   SCALAPACK package :  Parallel linear algebra routines


Your calculation utilizes the basis: Ahlrichs-TZV
Cite in your paper:
H - Kr: A. Schaefer, H. Horn and R. Ahlrichs, J. Chem. Phys. 97, 2571 (1992).

The def2-TZV basis will be loaded
Cite in your paper:
 	F. Weigend, R. Ahlrichs, Phys. Chem. Chem. Phys. 2005, 7, 3297.

================================================================================
                                        WARNINGS
                       Please study these warnings very carefully!
================================================================================
Now building the actual basis set
WARNING: Geometry optimizations can change the point-group symmetry!

WARNING: Geometry Optimization
  ===> : Switching off AutoStart
         For restart on a previous wavefunction, please use MOREAD


INFO   : the flag for use of LIBINT has been found!

================================================================================
                                       INPUT FILE
================================================================================
NAME = 2470_+.inp
|  1> ! NORI PBE0 def2-TZVP UseSym TightOPT Freq TightSCF Grid3 FinalGrid5 XYZFile
|  2> % pal
|  3>     nprocs 8
|  4> end
|  5> %method
|  6>     SymThresh 5.0e-2
|  7> end
|  8> % geom 
|  9>     MaxIter 10
| 10> end 
| 11> % maxcore 2000
| 12> % output
| 13>     printlevel mini
| 14>     print[ P_Basis ] 0
| 15>     print[ P_SCFInfo ] 1
| 16>     print[ P_SCFIterInfo ] 1
| 17>     print[ P_OrbEn ] 0
| 18>     print[ P_Cartesian ] 0
| 19> end
| 20> % elprop
| 21>     Dipole false
| 22> end
| 23> *xyz 1 1
| 24>  C        1.9236329404    -0.9366995172     1.3836528173 
| 25>  C        2.8352417984    -0.3956659526     0.3033333506 
| 26>  N        2.0724899289    -0.4726912422    -1.0319029265 
| 27>  C        3.2521380356     1.0165642644     0.5121253629 
| 28>  C        4.4850147942     1.5163084832     0.3523461878 
| 29>  C        5.6793608992     0.7389714729    -0.0951785535 
| 30>  C        4.7538753296     2.9539041111     0.6535417459 
| 31>  H        1.5923956497    -1.9573171771     1.1770177346 
| 32>  H        1.0475770243    -0.2974806929     1.5216265060 
| 33>  H        2.4693605092    -0.9507255964     2.3273063838 
| 34>  H        3.6910351533    -1.0545283944     0.1552736664 
| 35>  H        1.2463720193     0.1277665985    -0.9936720802 
| 36>  H        1.7635887585    -1.4232522060    -1.2458214145 
| 37>  H        2.6612159705    -0.1350492704    -1.7947365720 
| 38>  H        2.4686098040     1.6781297774     0.8773671524 
| 39>  H        5.4821326841    -0.3047458091    -0.3384352792 
| 40>  H        6.4464132875     0.7608929642     0.6850322102 
| 41>  H        6.1265436224     1.2145293555    -0.9726930869 
| 42>  H        5.1657372478     3.4575502649    -0.2260491311 
| 43>  H        5.5102965792     3.0385950526     1.4399946772 
| 44>  H        3.8591979641     3.4863835136     0.9749512490 
| 45> *
| 46> 
| 47>                          ****END OF INPUT****
================================================================================

The point group is C1 - hence turning off symmetry
If this is a round-off problem, please increase the symmetry
        detection tolerance (%method SymThresh)


                       *****************************
                       * Geometry Optimization Run *
                       *****************************

Geometry optimization settings:
Update method            Update   .... BFGS
Choice of coordinates    CoordSys .... Redundant Internals
Initial Hessian          InHess   .... Almoef's Model

Convergence Tolerances:
Energy Change            TolE     ....  1.0000e-06 Eh
Max. Gradient            TolMAXG  ....  1.0000e-04 Eh/bohr
RMS Gradient             TolRMSG  ....  3.0000e-05 Eh/bohr
Max. Displacement        TolMAXD  ....  1.0000e-03 bohr
RMS Displacement         TolRMSD  ....  6.0000e-04 bohr

------------------------------------------------------------------------------
                        ORCA OPTIMIZATION COORDINATE SETUP
------------------------------------------------------------------------------

The optimization will be done in new redundant internal coordinates
Making redundant internal coordinates   ...  (new redundants) done
Evaluating the initial hessian          ...  (Almloef) done
Evaluating the coordinates              ...  done
Calculating the B-matrix                .... done
Calculating the G-matrix                .... done
Diagonalizing the G-matrix              .... done
Small eigenvalue found = 1.866e-02
The first mode is                       ....   39
The number of degrees of freedom        ....   57

    -----------------------------------------------------------------
                    Redundant Internal Coordinates


    -----------------------------------------------------------------
         Definition                    Initial Value    Approx d2E/dq
    -----------------------------------------------------------------
      1. B(C   1,C   0)                  1.5136         0.396844   
      2. B(N   2,C   1)                  1.5397         0.322915   
      3. B(C   3,C   1)                  1.4872         0.437167   
      4. B(C   4,C   3)                  1.3399         0.751127   
      5. B(C   5,C   4)                  1.4937         0.426943   
      6. B(C   6,C   4)                  1.4932         0.427630   
      7. B(H   7,C   0)                  1.0927         0.356496   
      8. B(H   8,C   0)                  1.0932         0.355877   
      9. B(H   9,C   0)                  1.0902         0.359859   
     10. B(H  10,C   1)                  1.0901         0.359916   
     11. B(H  11,N   2)                  1.0220         0.414049   
     12. B(H  12,N   2)                  1.0221         0.413851   
     13. B(H  13,N   2)                  1.0210         0.415515   
     14. B(H  14,C   3)                  1.0886         0.361995   
     15. B(H  15,C   5)                  1.0897         0.360514   
     16. B(H  16,C   5)                  1.0943         0.354405   
     17. B(H  17,C   5)                  1.0937         0.355251   
     18. B(H  18,C   6)                  1.0941         0.354767   
     19. B(H  19,C   6)                  1.0945         0.354241   
     20. B(H  20,C   6)                  1.0896         0.360594   
     21. A(C   1,C   0,H   7)          112.4246         0.327017   
     22. A(C   1,C   0,H   8)          111.3294         0.326923   
     23. A(H   8,C   0,H   9)          107.4230         0.290271   
     24. A(H   7,C   0,H   9)          107.6623         0.290350   
     25. A(H   7,C   0,H   8)          109.0915         0.289843   
     26. A(C   1,C   0,H   9)          108.7190         0.327523   
     27. A(N   2,C   1,C   3)          107.9464         0.361801   
     28. A(N   2,C   1,H  10)          103.9388         0.314784   
     29. A(C   0,C   1,H  10)          110.7151         0.327532   
     30. A(C   0,C   1,C   3)          114.0835         0.377203   
     31. A(C   0,C   1,N   2)          107.6218         0.355891   
     32. A(C   3,C   1,H  10)          111.8958         0.332814   
     33. A(H  12,N   2,H  13)          108.9913         0.299170   
     34. A(H  11,N   2,H  13)          107.4422         0.299192   
     35. A(C   1,N   2,H  13)          110.2262         0.319528   
     36. A(H  11,N   2,H  12)          108.0552         0.299002   
     37. A(C   1,N   2,H  12)          112.1937         0.319318   
     38. A(C   1,N   2,H  11)          109.7926         0.319343   
     39. A(C   4,C   3,H  14)          118.4008         0.364949   
     40. A(C   1,C   3,H  14)          114.9884         0.333132   
     41. A(C   1,C   3,C   4)          126.5390         0.421978   
     42. A(C   3,C   4,C   6)          120.0469         0.420320   
     43. A(C   5,C   4,C   6)          114.6771         0.380553   
     44. A(C   3,C   4,C   5)          125.2667         0.420199   
     45. A(H  16,C   5,H  17)          106.0651         0.289496   
     46. A(H  15,C   5,H  17)          108.1418         0.290273   
     47. A(C   4,C   5,H  17)          109.9407         0.330796   
     48. A(H  15,C   5,H  16)          107.7706         0.290165   
     49. A(C   4,C   5,H  16)          109.6598         0.330666   
     50. A(C   4,C   5,H  15)          114.8744         0.331603   
     51. A(C   4,C   6,H  18)          110.4147         0.330810   
     52. A(H  19,C   6,H  20)          108.5243         0.290154   
     53. A(H  18,C   6,H  20)          108.7407         0.290221   
     54. A(C   4,C   6,H  20)          112.4661         0.331703   
     55. A(H  18,C   6,H  19)          106.3742         0.289414   
     56. A(C   4,C   6,H  19)          110.1137         0.330729   
     57. D(C   3,C   1,C   0,H   8)     54.2593         0.012502   
     58. D(C   3,C   1,C   0,H   7)    177.0105         0.012502   
     59. D(H  10,C   1,C   0,H   8)   -178.4583         0.012502   
     60. D(N   2,C   1,C   0,H   8)    -65.4830         0.012502   
     61. D(H  10,C   1,C   0,H   7)    -55.7072         0.012502   
     62. D(N   2,C   1,C   0,H   9)    176.3718         0.012502   
     63. D(H  10,C   1,C   0,H   9)     63.3965         0.012502   
     64. D(N   2,C   1,C   0,H   7)     57.2681         0.012502   
     65. D(C   3,C   1,C   0,H   9)    -63.8858         0.012502   
     66. D(H  12,N   2,C   1,C   3)    179.3387         0.009717   
     67. D(H  12,N   2,C   1,C   0)    -57.0928         0.009717   
     68. D(H  11,N   2,C   1,H  10)   -179.4562         0.009717   
     69. D(H  11,N   2,C   1,C   3)    -60.4914         0.009717   
     70. D(H  12,N   2,C   1,H  10)     60.3739         0.009717   
     71. D(H  11,N   2,C   1,C   0)     63.0772         0.009717   
     72. D(H  13,N   2,C   1,H  10)    -61.2860         0.009717   
     73. D(H  13,N   2,C   1,C   3)     57.6788         0.009717   
     74. D(H  13,N   2,C   1,C   0)   -178.7526         0.009717   
     75. D(H  14,C   3,C   1,H  10)   -167.2863         0.014105   
     76. D(H  14,C   3,C   1,N   2)     78.9438         0.014105   
     77. D(H  14,C   3,C   1,C   0)    -40.6156         0.014105   
     78. D(C   4,C   3,C   1,H  10)      9.5598         0.014105   
     79. D(C   4,C   3,C   1,N   2)   -104.2101         0.014105   
     80. D(C   4,C   3,C   1,C   0)    136.2305         0.014105   
     81. D(C   6,C   4,C   3,H  14)     -0.9079         0.040247   
     82. D(C   6,C   4,C   3,C   1)   -177.6580         0.040247   
     83. D(C   5,C   4,C   3,H  14)    177.9226         0.040247   
     84. D(C   5,C   4,C   3,C   1)      1.1725         0.040247   
     85. D(H  16,C   5,C   4,C   3)   -119.0337         0.013467   
     86. D(H  15,C   5,C   4,C   6)   -178.6221         0.013467   
     87. D(H  15,C   5,C   4,C   3)      2.4920         0.013467   
     88. D(H  17,C   5,C   4,C   6)    -56.3930         0.013467   
     89. D(H  17,C   5,C   4,C   3)    124.7210         0.013467   
     90. D(H  16,C   5,C   4,C   6)     59.8522         0.013467   
     91. D(H  20,C   6,C   4,C   5)    179.9237         0.013509   
     92. D(H  20,C   6,C   4,C   3)     -1.1271         0.013509   
     93. D(H  19,C   6,C   4,C   5)    -58.9071         0.013509   
     94. D(H  19,C   6,C   4,C   3)    120.0421         0.013509   
     95. D(H  18,C   6,C   4,C   5)     58.2635         0.013509   
     96. D(H  18,C   6,C   4,C   3)   -122.7873         0.013509   
    -----------------------------------------------------------------

Number of atoms                         .... 21
Number of degrees of freedom            .... 96

         *************************************************************
         *                GEOMETRY OPTIMIZATION CYCLE   1            *
         *************************************************************


           ************************************************************
           *        Program running with 8 parallel MPI-processes     *
           *              working on a common directory               *
           ************************************************************
           ************************************************************
           *              Shut down parallel processing               *
           ************************************************************


           ************************************************************
           *        Program running with 8 parallel MPI-processes     *
           *              working on a common directory               *
           ************************************************************
------------
SCF SETTINGS
------------
Hamiltonian:
 Density Functional     Method          .... DFT(GTOs)
 Exchange Functional    Exchange        .... PBE
   PBE kappa parameter  XKappa          ....  0.804000
 Correlation Functional Correlation     .... PBE
 LDA part of GGA corr.  LDAOpt          .... PW91-LDA
 Gradients option       PostSCFGGA      .... off
 Hybrid DFT is turned on
   Fraction HF Exchange ScalHFX         ....  0.250000
   Scaling of DF-GGA-X  ScalDFX         ....  0.750000
   Scaling of DF-GGA-C  ScalDFC         ....  1.000000
   Scaling of DF-LDA-C  ScalLDAC        ....  1.000000
   Perturbative correction              ....  0.000000
   NL short-range parameter             ....  6.900000


General Settings:
 Integral files         IntName         .... 2470_+
 Hartree-Fock type      HFTyp           .... RHF
 Total Charge           Charge          ....    1
 Multiplicity           Mult            ....    1
 Number of Electrons    NEL             ....   56
 Basis Dimension        Dim             ....  301
 Nuclear Repulsion      ENuc            ....    320.7615980242 Eh

Convergence Acceleration:
 DIIS                   CNVDIIS         .... on
   Start iteration      DIISMaxIt       ....    12
   Startup error        DIISStart       ....  0.200000
   # of expansion vecs  DIISMaxEq       ....     5
   Bias factor          DIISBfac        ....   1.050
   Max. coefficient     DIISMaxC        ....  10.000
 Newton-Raphson         CNVNR           .... off
 SOSCF                  CNVSOSCF        .... on
   Start iteration      SOSCFMaxIt      ....   150
   Startup grad/error   SOSCFStart      ....  0.003300
 Level Shifting         CNVShift        .... on
   Level shift para.    LevelShift      ....    0.2500
   Turn off err/grad.   ShiftErr        ....    0.0010
 Zerner damping         CNVZerner       .... off
 Static damping         CNVDamp         .... on
   Fraction old density DampFac         ....    0.7000
   Max. Damping (<1)    DampMax         ....    0.9800
   Min. Damping (>=0)   DampMin         ....    0.0000
   Turn off err/grad.   DampErr         ....    0.1000
 Fernandez-Rico         CNVRico         .... off

SCF Procedure:
 Maximum # iterations   MaxIter         ....   125
 SCF integral mode      SCFMode         .... Direct
   Integral package                     .... LIBINT
 Reset frequeny         DirectResetFreq ....    20
 Integral Threshold     Thresh          ....  2.500e-11 Eh
 Primitive CutOff       TCut            ....  2.500e-12 Eh

Convergence Tolerance:
 Convergence Check Mode ConvCheckMode   .... Total+1el-Energy
 Energy Change          TolE            ....  1.000e-08 Eh
 1-El. energy change                    ....  1.000e-05 Eh
 Orbital Gradient       TolG            ....  1.000e-05
 Orbital Rotation angle TolX            ....  1.000e-05
 DIIS Error             TolErr          ....  5.000e-07


Diagonalization of the overlap matrix:
Smallest eigenvalue                        ... 7.170e-05
Time for diagonalization                   ...    0.398 sec
Threshold for overlap eigenvalues          ... 1.000e-08
Number of eigenvalues below threshold      ... 0
Time for construction of square roots      ...    0.024 sec
Total time needed                          ...    0.423 sec

-------------------
DFT GRID GENERATION
-------------------

General Integration Accuracy     IntAcc      ...  4.340
Radial Grid Type                 RadialGrid  ... Gauss-Chebyshev
Angular Grid (max. acc.)         AngularGrid ... Lebedev-194
Angular grid pruning method      GridPruning ... 3 (G Style)
Weight generation scheme         WeightScheme... Becke
Basis function cutoff            BFCut       ...    1.0000e-11
Integration weight cutoff        WCut        ...    1.0000e-14
Grids for H and He will be reduced by one unit

# of grid points (after initial pruning)     ...  44398 (   0.0 sec)
# of grid points (after weights+screening)   ...  40365 (   0.2 sec)
nearest neighbour list constructed           ...    0.0 sec
Grid point re-assignment to atoms done       ...    0.0 sec
Grid point division into batches done        ...    0.1 sec
Reduced shell lists constructed in    0.1 sec

Total number of grid points                  ...    40365
Total number of batches                      ...      644
Average number of points per batch           ...       62
Average number of grid points per atom       ...     1922
Average number of shells per batch           ...   101.43 (76.26%)
Average number of basis functions per batch  ...   236.33 (78.51%)
Average number of large shells per batch     ...    81.83 (80.68%)
Average number of large basis fcns per batch ...   189.44 (80.16%)
Maximum spatial batch extension              ...   2.22,  2.66,  2.97 au
Average spatial batch extension              ...   0.14,  0.14,  0.15 au

Time for grid setup =    0.742 sec

Loading Hartree-Fock densities                     ... done
Calculating cut-offs                               ... done
Setting up the integral package                    ... done
Initializing the effective Hamiltonian             ... done
Starting the Coulomb interaction                   ... done (   0.0 sec)
Reading the grid                                   ... done
Mapping shells                                     ... done
Starting the XC term evaluation                    ... done (   0.5 sec)
  promolecular density results
     # of electrons  =     56.995888290
     EX              =    -41.396481300
     EC              =     -1.852527404
     EX+EC           =    -43.249008704
Transforming the Hamiltonian                       ... done (   0.0 sec)
Diagonalizing the Hamiltonian                      ... done (   0.2 sec)
Back transforming the eigenvectors                 ... done (   0.0 sec)
Now organizing SCF variables                       ... done
--------------
SCF ITERATIONS
--------------
ITER       Energy         Delta-E        Max-DP      RMS-DP      [F,P]     Damp
               ***  Starting incremental Fock matrix formation  ***
  0   -291.1098893658   0.000000000000 0.04322590  0.00093651  0.1735194 0.7000
  1   -291.2053401772  -0.095450811361 0.04698562  0.00075086  0.0940179 0.7000
                               ***Turning on DIIS***
  2   -291.2480857458  -0.042745568592 0.10314351  0.00147502  0.0387374 0.0000
  3   -291.3083131065  -0.060227360726 0.02034448  0.00044160  0.0492199 0.0000
  4   -291.3241976904  -0.015884583884 0.01100160  0.00015870  0.0079572 0.0000
                      *** Initiating the SOSCF procedure ***
                           *** Shutting down DIIS ***
                      *** Re-Reading the Fockian *** 
                      *** Removing any level shift *** 
ITER      Energy       Delta-E        Grad      Rot      Max-DP    RMS-DP
  5   -291.32477127  -0.0005735827  0.000587  0.000587  0.003273  0.000064
               *** Restarting incremental Fock matrix formation ***
  6   -291.32481111  -0.0000398349  0.000590  0.002121  0.002316  0.000046
  7   -291.32480897   0.0000021428  0.000761  0.001000  0.000605  0.000012
  8   -291.32481680  -0.0000078345  0.000078  0.000220  0.000232  0.000006
  9   -291.32481673   0.0000000694  0.000065  0.000090  0.000150  0.000002
 10   -291.32481700  -0.0000002714  0.000008  0.000008  0.000023  0.000000
 11   -291.32481700   0.0000000001  0.000009  0.000005  0.000010  0.000000
                  ***Gradient check signals convergence***
              ***Rediagonalizing the Fockian in SOSCF/NRSCF***

               *****************************************************
               *                     SUCCESS                       *
               *           SCF CONVERGED AFTER  12 CYCLES          *
               *****************************************************

Setting up the final grid:

General Integration Accuracy     IntAcc      ...  5.010
Radial Grid Type                 RadialGrid  ... Gauss-Chebyshev
Angular Grid (max. acc.)         AngularGrid ... Lebedev-434
Angular grid pruning method      GridPruning ... 3 (G Style)
Weight generation scheme         WeightScheme... Becke
Basis function cutoff            BFCut       ...    1.0000e-11
Integration weight cutoff        WCut        ...    1.0000e-14
Grids for H and He will be reduced by one unit

# of grid points (after initial pruning)     ... 168466 (   0.0 sec)
# of grid points (after weights+screening)   ... 151314 (   0.7 sec)
nearest neighbour list constructed           ...    0.0 sec
Grid point re-assignment to atoms done       ...    0.0 sec
Grid point division into batches done        ...    0.9 sec
Reduced shell lists constructed in    1.2 sec

Total number of grid points                  ...   151314
Total number of batches                      ...     2375
Average number of points per batch           ...       63
Average number of grid points per atom       ...     7205
Average number of shells per batch           ...   101.01 (75.95%)
Average number of basis functions per batch  ...   236.41 (78.54%)
Average number of large shells per batch     ...    80.89 (80.08%)
Average number of large basis fcns per batch ...   187.41 (79.27%)
Maximum spatial batch extension              ...   2.48,  2.11,  2.51 au
Average spatial batch extension              ...   0.10,  0.10,  0.10 au

Final grid set up in    2.7 sec
Final integration                            ... done (   1.1 sec)
Change in XC energy                          ...     0.000580710
Integrated number of electrons               ...    56.000029670
Previous integrated no of electrons          ...    56.001199935
Total Energy       :         -291.32423629 Eh           -7927.33549 eV
  Last Energy change         ...   -2.2519e-09  Tolerance :   1.0000e-08
  Last MAX-Density change    ...    5.8163e-06  Tolerance :   1.0000e-07
             **** THE GBW FILE WAS UPDATED (2470_+.gbw) ****
             **** DENSITY FILE WAS UPDATED (2470_+.scfp.tmp) ****
             **** ENERGY FILE WAS UPDATED (2470_+.en.tmp) ****
Total SCF time: 0 days 0 hours 1 min 40 sec 
           ************************************************************
           *              Shut down parallel processing               *
           ************************************************************

-------------------------   --------------------
FINAL SINGLE POINT ENERGY      -291.324236293483
-------------------------   --------------------



           ************************************************************
           *        Program running with 8 parallel MPI-processes     *
           *              working on a common directory               *
           ************************************************************
------------------------------------------------------------------------------
                         ORCA SCF GRADIENT CALCULATION
------------------------------------------------------------------------------

Gradient of the Kohn-Sham DFT energy:
Kohn-Sham wavefunction type      ... RKS
Hartree-Fock exchange scaling    ...    0.250
Number of operators              ...    1
Number of atoms                  ...   21
Basis set dimensions             ...  301
Integral neglect threshold       ... 2.5e-11
Integral primitive cutoff        ... 2.5e-12

Nuclear repulsion gradient       ... done
One Electron Gradient            ... done
Pre-screening matrix             ... done
Starting the two electron gradient:
Two electron gradient done
Exchange-correlation gradient    ... done

------------------
CARTESIAN GRADIENT
------------------

   1   C   :    0.000128445    0.000134314    0.000221854
   2   C   :    0.000051906   -0.000240071   -0.000023988
   3   N   :    0.000059499    0.000093015    0.000193655
   4   C   :   -0.000071738    0.000104138   -0.000251492
   5   C   :    0.000146838    0.000041217    0.000144990
   6   C   :   -0.000104509    0.000055047    0.000245095
   7   C   :   -0.000030712    0.000004046    0.000016441
   8   H   :   -0.000073496    0.000078442   -0.000093289
   9   H   :   -0.000122036   -0.000091770   -0.000071049
  10   H   :    0.000075373   -0.000041178   -0.000059114
  11   H   :   -0.000108922   -0.000029186    0.000014186
  12   H   :    0.000016087   -0.000079369    0.000015168
  13   H   :   -0.000044726    0.000046775   -0.000061271
  14   H   :   -0.000017342   -0.000056521   -0.000027462
  15   H   :   -0.000027243   -0.000102035   -0.000016103
  16   H   :   -0.000003171    0.000086480    0.000034242
  17   H   :    0.000088864   -0.000064763   -0.000192933
  18   H   :    0.000062704    0.000010917   -0.000006292
  19   H   :   -0.000056713    0.000024657    0.000051362
  20   H   :    0.000048354   -0.000055764   -0.000153629
  21   H   :   -0.000017460    0.000081608    0.000019629

Norm of the cartesian gradient     ...    0.000775152
RMS gradient                       ...    0.000097660
MAX gradient                       ...    0.000251492

-------
TIMINGS
-------

Total SCF gradient time            ...       38.753 sec

One electron gradient       ....       0.276 sec  (  0.7%)
Prescreening matrices       ....       0.470 sec  (  1.2%)
Two electron gradient       ....      32.505 sec  ( 83.9%)
XC gradient                 ....       4.265 sec  ( 11.0%)
           ************************************************************
           *              Shut down parallel processing               *
           ************************************************************
------------------------------------------------------------------------------
                         ORCA GEOMETRY RELAXATION STEP
------------------------------------------------------------------------------

Reading the OPT-File                    .... done
Getting information on internals        .... done
Copying old internal coords+grads       .... done
Making the new internal coordinates     .... (new redundants).... done
Validating the new internal coordinates .... (new redundants).... done
Calculating the B-matrix                .... done
Calculating the G,G- and P matrices     .... done
Transforming gradient to internals      .... done
Projecting the internal gradient        .... done
Number of atoms                         ....  21
Number of internal coordinates          ....  96
Current Energy                          ....  -291.324236293 Eh
Current gradient norm                   ....     0.000775152 Eh/bohr
Maximum allowed component of the step   ....  0.300
Current trust radius                    ....  0.300
Evaluating the initial hessian          ....  (Almloef) done
Projecting the Hessian                  .... done
Forming the augmented Hessian           .... done
Diagonalizing the augmented Hessian     .... done
Last element of RFO vector              ....  0.999973857
Lowest eigenvalues of augmented Hessian:
 -0.000002196  0.009716508  0.012502668  0.013466830  0.013508987
Length of the computed step             ....  0.007231093
The final length of the internal step   ....  0.007231093
Converting the step to cartesian space:
 Initial RMS(Int)=    0.0007380203
Transforming coordinates:
 Iter   0:  RMS(Cart)=    0.0017634675 RMS(Int)=    0.0007380625
 Iter   1:  RMS(Cart)=    0.0000014814 RMS(Int)=    0.0000008353
 Iter   2:  RMS(Cart)=    0.0000000020 RMS(Int)=    0.0000000012
done
Storing new coordinates                 .... done

                                .--------------------.
          ----------------------|Geometry convergence|---------------------
          Item                value                 Tolerance   Converged
          -----------------------------------------------------------------
          RMS gradient        0.00007389            0.00003000      NO
          MAX gradient        0.00025741            0.00010000      NO
          RMS step            0.00073802            0.00060000      NO
          MAX step            0.00205646            0.00100000      NO
          ....................................................
          Max(Bonds)      0.0003      Max(Angles)    0.04
          Max(Dihed)        0.12      Max(Improp)    0.00
          -----------------------------------------------------------------

The optimization has not yet converged - more geometry cycles are needed


    ---------------------------------------------------------------------------
                         Redundant Internal Coordinates
                            (Angstroem and degrees)

        Definition                    Value    dE/dq     Step     New-Value
    ----------------------------------------------------------------------------
     1. B(C   1,C   0)                1.5136  0.000024 -0.0000    1.5135   
     2. B(N   2,C   1)                1.5397  0.000095 -0.0002    1.5395   
     3. B(C   3,C   1)                1.4872  0.000169 -0.0002    1.4870   
     4. B(C   4,C   3)                1.3399 -0.000257  0.0002    1.3401   
     5. B(C   5,C   4)                1.4937 -0.000106  0.0001    1.4938   
     6. B(C   6,C   4)                1.4932  0.000100 -0.0001    1.4931   
     7. B(H   7,C   0)                1.0927 -0.000141  0.0002    1.0929   
     8. B(H   8,C   0)                1.0932 -0.000120  0.0002    1.0934   
     9. B(H   9,C   0)                1.0902  0.000097 -0.0001    1.0900   
    10. B(H  10,C   1)                1.0901  0.000043 -0.0001    1.0901   
    11. B(H  11,N   2)                1.0220 -0.000074  0.0001    1.0221   
    12. B(H  12,N   2)                1.0221 -0.000087  0.0001    1.0222   
    13. B(H  13,N   2)                1.0210  0.000031 -0.0000    1.0210   
    14. B(H  14,C   3)                1.0886 -0.000105  0.0002    1.0887   
    15. B(H  15,C   5)                1.0897 -0.000032  0.0000    1.0897   
    16. B(H  16,C   5)                1.0943  0.000221 -0.0003    1.0940   
    17. B(H  17,C   5)                1.0937 -0.000064  0.0001    1.0938   
    18. B(H  18,C   6)                1.0941  0.000058 -0.0001    1.0940   
    19. B(H  19,C   6)                1.0945  0.000169 -0.0003    1.0942   
    20. B(H  20,C   6)                1.0896  0.000073 -0.0001    1.0895   
    21. A(C   1,C   0,H   7)          112.42  0.000002   -0.00    112.42   
    22. A(C   1,C   0,H   8)          111.33 -0.000167    0.03    111.36   
    23. A(H   8,C   0,H   9)          107.42  0.000037   -0.00    107.42   
    24. A(H   7,C   0,H   9)          107.66 -0.000012   -0.00    107.66   
    25. A(H   7,C   0,H   8)          109.09  0.000080   -0.01    109.08   
    26. A(C   1,C   0,H   9)          108.72  0.000067   -0.01    108.71   
    27. A(N   2,C   1,C   3)          107.95  0.000095   -0.01    107.94   
    28. A(N   2,C   1,H  10)          103.94 -0.000058    0.01    103.95   
    29. A(C   0,C   1,H  10)          110.72  0.000112   -0.04    110.67   
    30. A(C   0,C   1,C   3)          114.08 -0.000096    0.03    114.11   
    31. A(C   0,C   1,N   2)          107.62 -0.000057    0.02    107.64   
    32. A(C   3,C   1,H  10)          111.90  0.000004   -0.01    111.88   
    33. A(H  12,N   2,H  13)          108.99  0.000003    0.01    109.00   
    34. A(H  11,N   2,H  13)          107.44  0.000033   -0.01    107.43   
    35. A(C   1,N   2,H  13)          110.23 -0.000059    0.01    110.24   
    36. A(H  11,N   2,H  12)          108.06 -0.000022    0.00    108.06   
    37. A(C   1,N   2,H  12)          112.19  0.000011    0.00    112.19   
    38. A(C   1,N   2,H  11)          109.79  0.000036   -0.01    109.78   
    39. A(C   4,C   3,H  14)          118.40  0.000027   -0.00    118.40   
    40. A(C   1,C   3,H  14)          114.99  0.000051   -0.01    114.98   
    41. A(C   1,C   3,C   4)          126.54 -0.000077    0.01    126.55   
    42. A(C   3,C   4,C   6)          120.05  0.000150   -0.02    120.03   
    43. A(C   5,C   4,C   6)          114.68  0.000079   -0.01    114.67   
    44. A(C   3,C   4,C   5)          125.27 -0.000228    0.03    125.30   
    45. A(H  16,C   5,H  17)          106.07  0.000020   -0.01    106.06   
    46. A(H  15,C   5,H  17)          108.14  0.000035   -0.00    108.14   
    47. A(C   4,C   5,H  17)          109.94  0.000013   -0.00    109.94   
    48. A(H  15,C   5,H  16)          107.77  0.000060   -0.01    107.76   
    49. A(C   4,C   5,H  16)          109.66 -0.000007    0.00    109.66   
    50. A(C   4,C   5,H  15)          114.87 -0.000109    0.02    114.90   
    51. A(C   4,C   6,H  18)          110.41 -0.000049    0.01    110.43   
    52. A(H  19,C   6,H  20)          108.52  0.000008   -0.01    108.52   
    53. A(H  18,C   6,H  20)          108.74 -0.000029    0.01    108.75   
    54. A(C   4,C   6,H  20)          112.47  0.000024   -0.00    112.46   
    55. A(H  18,C   6,H  19)          106.37  0.000031   -0.01    106.37   
    56. A(C   4,C   6,H  19)          110.11  0.000016   -0.01    110.11   
    57. D(C   3,C   1,C   0,H   8)     54.26 -0.000016    0.10     54.36   
    58. D(C   3,C   1,C   0,H   7)    177.01 -0.000034    0.11    177.12   
    59. D(H  10,C   1,C   0,H   8)   -178.46  0.000007    0.07   -178.39   
    60. D(N   2,C   1,C   0,H   8)    -65.48 -0.000037    0.07    -65.41   
    61. D(H  10,C   1,C   0,H   7)    -55.71 -0.000012    0.07    -55.63   
    62. D(N   2,C   1,C   0,H   9)    176.37 -0.000025    0.07    176.44   
    63. D(H  10,C   1,C   0,H   9)     63.40  0.000019    0.06     63.46   
    64. D(N   2,C   1,C   0,H   7)     57.27 -0.000055    0.08     57.35   
    65. D(C   3,C   1,C   0,H   9)    -63.89 -0.000004    0.09    -63.79   
    66. D(H  12,N   2,C   1,C   3)    179.34  0.000026   -0.01    179.33   
    67. D(H  12,N   2,C   1,C   0)    -57.09 -0.000067    0.03    -57.06   
    68. D(H  11,N   2,C   1,H  10)   -179.46  0.000011   -0.00   -179.46   
    69. D(H  11,N   2,C   1,C   3)    -60.49  0.000030   -0.01    -60.50   
    70. D(H  12,N   2,C   1,H  10)     60.37  0.000007    0.00     60.37   
    71. D(H  11,N   2,C   1,C   0)     63.08 -0.000063    0.03     63.11   
    72. D(H  13,N   2,C   1,H  10)    -61.29  0.000037   -0.02    -61.30   
    73. D(H  13,N   2,C   1,C   3)     57.68  0.000056   -0.03     57.65   
    74. D(H  13,N   2,C   1,C   0)   -178.75 -0.000037    0.01   -178.74   
    75. D(H  14,C   3,C   1,H  10)   -167.29 -0.000019   -0.04   -167.33   
    76. D(H  14,C   3,C   1,N   2)     78.94 -0.000006   -0.05     78.90   
    77. D(H  14,C   3,C   1,C   0)    -40.62  0.000059   -0.09    -40.70   
    78. D(C   4,C   3,C   1,H  10)      9.56 -0.000005   -0.07      9.49   
    79. D(C   4,C   3,C   1,N   2)   -104.21  0.000007   -0.08   -104.29   
    80. D(C   4,C   3,C   1,C   0)    136.23  0.000073   -0.12    136.11   
    81. D(C   6,C   4,C   3,H  14)     -0.91 -0.000005    0.02     -0.89   
    82. D(C   6,C   4,C   3,C   1)   -177.66 -0.000019    0.05   -177.61   
    83. D(C   5,C   4,C   3,H  14)    177.92  0.000018   -0.05    177.88   
    84. D(C   5,C   4,C   3,C   1)      1.17  0.000004   -0.01      1.16   
    85. D(H  16,C   5,C   4,C   3)   -119.03  0.000019   -0.06   -119.09   
    86. D(H  15,C   5,C   4,C   6)   -178.62  0.000038   -0.12   -178.74   
    87. D(H  15,C   5,C   4,C   3)      2.49  0.000015   -0.06      2.43   
    88. D(H  17,C   5,C   4,C   6)    -56.39  0.000015   -0.11    -56.50   
    89. D(H  17,C   5,C   4,C   3)    124.72 -0.000008   -0.05    124.67   
    90. D(H  16,C   5,C   4,C   6)     59.85  0.000042   -0.12     59.73   
    91. D(H  20,C   6,C   4,C   5)    179.92 -0.000037    0.03    179.95   
    92. D(H  20,C   6,C   4,C   3)     -1.13 -0.000019   -0.03     -1.15   
    93. D(H  19,C   6,C   4,C   5)    -58.91  0.000001    0.01    -58.89   
    94. D(H  19,C   6,C   4,C   3)    120.04  0.000018   -0.04    120.00   
    95. D(H  18,C   6,C   4,C   5)     58.26  0.000019    0.00     58.27   
    96. D(H  18,C   6,C   4,C   3)   -122.79  0.000036   -0.05   -122.84   
    ----------------------------------------------------------------------------

         *************************************************************
         *                GEOMETRY OPTIMIZATION CYCLE   2            *
         *************************************************************
---------------------------------
CARTESIAN COORDINATES (ANGSTROEM)
---------------------------------
  C      2.212713   -0.000591    1.144989
  C      0.745503   -0.293022    0.915818
  N      0.000179    0.001215    2.230358
  C      0.123048    0.527122   -0.157074
  C     -0.707398    0.091501   -1.114329
  C     -1.186421   -1.315137   -1.266951
  C     -1.207904    1.036682   -2.156174
  H      2.629456   -0.581564    1.971625
  H      2.382007    1.062862    1.334484
  H      2.766531   -0.263650    0.243728
  H      0.585990   -1.359492    0.756244
  H      0.085828    0.993007    2.462062
  H      0.370899   -0.540445    3.014032
  H     -0.994579   -0.203631    2.125814
  H      0.427844    1.572202   -0.172255
  H     -0.840749   -2.003637   -0.496238
  H     -0.865746   -1.710125   -2.235459
  H     -2.279918   -1.337652   -1.278082
  H     -2.301664    1.058231   -2.158337
  H     -0.904289    0.695602   -3.150550
  H     -0.837842    2.050999   -2.010346

----------------------------
CARTESIAN COORDINATES (A.U.)
----------------------------
  NO LB      ZA    FRAG    MASS        X           Y           Z
   0 C     6.0000    0    12.011          4.181421594480939         -0.001116315367854          2.163715034020451
   1 C     6.0000    0    12.011          1.408795902231982         -0.553731796275566          1.730645643309970
   2 N     7.0000    0    14.007          0.000337515607531          0.002296217198295          4.214766263520090
   3 C     6.0000    0    12.011          0.232527943337437          0.996116308969785         -0.296827116301468
   4 C     6.0000    0    12.011         -1.336788260956522          0.172910960555258         -2.105777263750911
   5 C     6.0000    0    12.011         -2.242011331891909         -2.485249010204099         -2.394190121762413
   6 C     6.0000    0    12.011         -2.282608210465420          1.959044815792457         -4.074578485224077
   7 H     1.0000    0     1.008          4.968951604505273         -1.098997393028810          3.725831668125219
   8 H     1.0000    0     1.008          4.501340321344387          2.008518437911403          2.521808490463767
   9 H     1.0000    0     1.008          5.227985338195545         -0.498226865113096          0.460578743954294
  10 H     1.0000    0     1.008          1.107359880709900         -2.569068432342905          1.429093828515102
  11 H     1.0000    0     1.008          0.162192087718240          1.876512220517778          4.652623501753086
  12 H     1.0000    0     1.008          0.700898084372108         -1.021293571342285          5.695695398143091
  13 H     1.0000    0     1.008         -1.879482358975479         -0.384806656332490          4.017207099406363
  14 H     1.0000    0     1.008          0.808507674840712          2.971030559177307         -0.325514269371121
  15 H     1.0000    0     1.008         -1.588784524756132         -3.786324592160930         -0.937753087837408
  16 H     1.0000    0     1.008         -1.636023768452070         -3.231667319706218         -4.224406057291523
  17 H     1.0000    0     1.008         -4.308421137985080         -2.527795036319481         -2.415225183789306
  18 H     1.0000    0     1.008         -4.349515327216353          1.999766414756191         -4.078665918352825
  19 H     1.0000    0     1.008         -1.708859157886898          1.314498210313469         -5.953677034601113
  20 H     1.0000    0     1.008         -1.583291160267429          3.875826657763111         -3.799002605084424

--------------------------------
INTERNAL COORDINATES (ANGSTROEM)
--------------------------------
 C      0   0   0   0.000000     0.000     0.000
 C      1   0   0   1.513520     0.000     0.000
 N      2   1   0   1.539513   107.644     0.000
 C      2   1   3   1.487005   114.109   119.764
 C      4   2   1   1.340054   126.550   136.113
 C      5   4   2   1.493783   125.298     1.159
 C      5   4   2   1.493089   120.027   182.389
 H      1   2   3   1.092947   112.424    57.351
 H      1   2   3   1.093390   111.362   294.591
 H      1   2   3   1.090039   108.706   176.441
 H      2   1   3   1.090077   110.674   247.016
 H      3   2   1   1.022093   109.783    63.105
 H      3   2   1   1.022240   112.194   302.938
 H      3   2   1   1.020997   110.237   181.262
 H      4   2   1   1.088725   114.980   319.297
 H      6   5   4   1.089734   114.895     2.433
 H      6   5   4   1.094009   109.660   240.907
 H      6   5   4   1.093785   109.939   124.672
 H      7   5   4   1.093975   110.426   237.163
 H      7   5   4   1.094213   110.107   120.000
 H      7   5   4   1.089519   112.463   358.847

---------------------------
INTERNAL COORDINATES (A.U.)
---------------------------
 C      0   0   0   0.000000     0.000     0.000
 C      1   0   0   2.860137     0.000     0.000
 N      2   1   0   2.909257   107.644     0.000
 C      2   1   3   2.810032   114.109   119.764
 C      4   2   1   2.532335   126.550   136.113
 C      5   4   2   2.822840   125.298     1.159
 C      5   4   2   2.821529   120.027   182.389
 H      1   2   3   2.065370   112.424    57.351
 H      1   2   3   2.066207   111.362   294.591
 H      1   2   3   2.059876   108.706   176.441
 H      2   1   3   2.059946   110.674   247.016
 H      3   2   1   1.931477   109.783    63.105
 H      3   2   1   1.931754   112.194   302.938
 H      3   2   1   1.929404   110.237   181.262
 H      4   2   1   2.057392   114.980   319.297
 H      6   5   4   2.059299   114.895     2.433
 H      6   5   4   2.067378   109.660   240.907
 H      6   5   4   2.066955   109.939   124.672
 H      7   5   4   2.067312   110.426   237.163
 H      7   5   4   2.067762   110.107   120.000
 H      7   5   4   2.058893   112.463   358.847



           ************************************************************
           *        Program running with 8 parallel MPI-processes     *
           *              working on a common directory               *
           ************************************************************
           ************************************************************
           *              Shut down parallel processing               *
           ************************************************************


           ************************************************************
           *        Program running with 8 parallel MPI-processes     *
           *              working on a common directory               *
           ************************************************************

Diagonalization of the overlap matrix:
Smallest eigenvalue                        ... 7.174e-05
Time for diagonalization                   ...    0.214 sec
Threshold for overlap eigenvalues          ... 1.000e-08
Number of eigenvalues below threshold      ... 0
Time for construction of square roots      ...    0.024 sec
Total time needed                          ...    0.238 sec

-------------------
DFT GRID GENERATION
-------------------

General Integration Accuracy     IntAcc      ...  4.340
Radial Grid Type                 RadialGrid  ... Gauss-Chebyshev
Angular Grid (max. acc.)         AngularGrid ... Lebedev-194
Angular grid pruning method      GridPruning ... 3 (G Style)
Weight generation scheme         WeightScheme... Becke
Basis function cutoff            BFCut       ...    1.0000e-11
Integration weight cutoff        WCut        ...    1.0000e-14
Grids for H and He will be reduced by one unit

# of grid points (after initial pruning)     ...  44398 (   0.0 sec)
# of grid points (after weights+screening)   ...  40367 (   0.1 sec)
nearest neighbour list constructed           ...    0.0 sec
Grid point re-assignment to atoms done       ...    0.0 sec
Grid point division into batches done        ...    0.1 sec
Reduced shell lists constructed in    0.2 sec

Total number of grid points                  ...    40367
Total number of batches                      ...      644
Average number of points per batch           ...       62
Average number of grid points per atom       ...     1922
Average number of shells per batch           ...   101.50 (76.32%)
Average number of basis functions per batch  ...   236.33 (78.51%)
Average number of large shells per batch     ...    81.80 (80.60%)
Average number of large basis fcns per batch ...   189.39 (80.14%)
Maximum spatial batch extension              ...   2.22,  2.66,  2.97 au
Average spatial batch extension              ...   0.14,  0.14,  0.15 au

Time for grid setup =    0.710 sec

--------------
SCF ITERATIONS
--------------
ITER       Energy         Delta-E        Max-DP      RMS-DP      [F,P]     Damp
               ***  Starting incremental Fock matrix formation  ***
                      *** Initiating the SOSCF procedure ***
                      *** Re-Reading the Fockian *** 
                      *** Removing any level shift *** 
ITER      Energy       Delta-E        Grad      Rot      Max-DP    RMS-DP
  0   -291.32481589 -291.3248158937  0.000106  0.000106  0.000291  0.000007
               *** Restarting incremental Fock matrix formation ***
  1   -291.32481812  -0.0000022307  0.000038  0.000096  0.000121  0.000003
  2   -291.32481835  -0.0000002247  0.000011  0.000032  0.000034  0.000001
  3   -291.32481835  -0.0000000012  0.000012  0.000010  0.000019  0.000000
                  ***Gradient check signals convergence***
              ***Rediagonalizing the Fockian in SOSCF/NRSCF***

               *****************************************************
               *                     SUCCESS                       *
               *           SCF CONVERGED AFTER   4 CYCLES          *
               *****************************************************

Setting up the final grid:

General Integration Accuracy     IntAcc      ...  5.010
Radial Grid Type                 RadialGrid  ... Gauss-Chebyshev
Angular Grid (max. acc.)         AngularGrid ... Lebedev-434
Angular grid pruning method      GridPruning ... 3 (G Style)
Weight generation scheme         WeightScheme... Becke
Basis function cutoff            BFCut       ...    1.0000e-11
Integration weight cutoff        WCut        ...    1.0000e-14
Grids for H and He will be reduced by one unit

# of grid points (after initial pruning)     ... 168466 (   0.0 sec)
# of grid points (after weights+screening)   ... 151317 (   3.8 sec)
nearest neighbour list constructed           ...    0.0 sec
Grid point re-assignment to atoms done       ...    0.0 sec
Grid point division into batches done        ...    1.1 sec
Reduced shell lists constructed in    1.5 sec

Total number of grid points                  ...   151317
Total number of batches                      ...     2376
Average number of points per batch           ...       63
Average number of grid points per atom       ...     7206
Average number of shells per batch           ...   101.02 (75.96%)
Average number of basis functions per batch  ...   236.40 (78.54%)
Average number of large shells per batch     ...    80.91 (80.09%)
Average number of large basis fcns per batch ...   187.40 (79.27%)
Maximum spatial batch extension              ...   2.41,  2.17,  2.51 au
Average spatial batch extension              ...   0.10,  0.10,  0.10 au

Final grid set up in    6.2 sec
Final integration                            ... done (   1.3 sec)
Change in XC energy                          ...     0.000580514
Integrated number of electrons               ...    56.000030187
Previous integrated no of electrons          ...    56.001204206
Total Energy       :         -291.32423785 Eh           -7927.33553 eV
  Last Energy change         ...   -8.8703e-09  Tolerance :   1.0000e-08
  Last MAX-Density change    ...    5.3940e-06  Tolerance :   1.0000e-07
             **** THE GBW FILE WAS UPDATED (2470_+.gbw) ****
             **** DENSITY FILE WAS UPDATED (2470_+.scfp.tmp) ****
             **** ENERGY FILE WAS UPDATED (2470_+.en.tmp) ****
Total SCF time: 0 days 0 hours 0 min 45 sec 
           ************************************************************
           *              Shut down parallel processing               *
           ************************************************************

-------------------------   --------------------
FINAL SINGLE POINT ENERGY      -291.324237845397
-------------------------   --------------------



           ************************************************************
           *        Program running with 8 parallel MPI-processes     *
           *              working on a common directory               *
           ************************************************************
------------------------------------------------------------------------------
                         ORCA SCF GRADIENT CALCULATION
------------------------------------------------------------------------------

Gradient of the Kohn-Sham DFT energy:
Kohn-Sham wavefunction type      ... RKS
Hartree-Fock exchange scaling    ...    0.250
Number of operators              ...    1
Number of atoms                  ...   21
Basis set dimensions             ...  301
Integral neglect threshold       ... 2.5e-11
Integral primitive cutoff        ... 2.5e-12

Nuclear repulsion gradient       ... done
One Electron Gradient            ... done
Pre-screening matrix             ... done
Starting the two electron gradient:
Two electron gradient done
Exchange-correlation gradient    ... done

------------------
CARTESIAN GRADIENT
------------------

   1   C   :    0.000070586    0.000039591    0.000022080
   2   C   :    0.000047091   -0.000130378   -0.000033013
   3   N   :   -0.000033069    0.000039893    0.000063618
   4   C   :    0.000008588    0.000033297   -0.000059818
   5   C   :   -0.000029866    0.000062129    0.000048268
   6   C   :   -0.000017992   -0.000036539    0.000005023
   7   C   :    0.000021424   -0.000020392   -0.000056696
   8   H   :   -0.000009863    0.000006752   -0.000000200
   9   H   :   -0.000069595    0.000008321   -0.000041840
  10   H   :    0.000019459   -0.000016319    0.000015411
  11   H   :   -0.000050269    0.000025455    0.000006780
  12   H   :    0.000010796   -0.000003962    0.000014098
  13   H   :   -0.000003646   -0.000007935   -0.000001094
  14   H   :    0.000008877   -0.000024249   -0.000011553
  15   H   :    0.000022835   -0.000018252   -0.000005162
  16   H   :   -0.000003910    0.000036213    0.000019521
  17   H   :    0.000016535   -0.000011214   -0.000006324
  18   H   :    0.000009377    0.000000263   -0.000018353
  19   H   :    0.000000380    0.000009296    0.000036585
  20   H   :   -0.000002019   -0.000000471   -0.000002198
  21   H   :   -0.000015720    0.000008502    0.000004866

Norm of the cartesian gradient     ...    0.000262754
RMS gradient                       ...    0.000033104
MAX gradient                       ...    0.000130378

-------
TIMINGS
-------

Total SCF gradient time            ...       39.238 sec

One electron gradient       ....       0.139 sec  (  0.4%)
Prescreening matrices       ....       0.566 sec  (  1.4%)
Two electron gradient       ....      31.971 sec  ( 81.5%)
XC gradient                 ....       4.642 sec  ( 11.8%)
           ************************************************************
           *              Shut down parallel processing               *
           ************************************************************
------------------------------------------------------------------------------
                         ORCA GEOMETRY RELAXATION STEP
------------------------------------------------------------------------------

Reading the OPT-File                    .... done
Getting information on internals        .... done
Copying old internal coords+grads       .... done
Making the new internal coordinates     .... (new redundants).... done
Validating the new internal coordinates .... (new redundants).... done
Calculating the B-matrix                .... done
Calculating the G,G- and P matrices     .... done
Transforming gradient to internals      .... done
Projecting the internal gradient        .... done
Number of atoms                         ....  21
Number of internal coordinates          ....  96
Current Energy                          ....  -291.324237845 Eh
Current gradient norm                   ....     0.000262754 Eh/bohr
Maximum allowed component of the step   ....  0.300
Current trust radius                    ....  0.300
Updating the Hessian (BFGS)             .... done
Forming the augmented Hessian           .... done
Diagonalizing the augmented Hessian     .... done
Last element of RFO vector              ....  0.999926474
Lowest eigenvalues of augmented Hessian:
 -0.000001462  0.007939403  0.009724268  0.012954723  0.013523391
Length of the computed step             ....  0.012127176
The final length of the internal step   ....  0.012127176
Converting the step to cartesian space:
 Initial RMS(Int)=    0.0012377247
Transforming coordinates:
 Iter   0:  RMS(Cart)=    0.0029116556 RMS(Int)=    0.0012378381
 Iter   1:  RMS(Cart)=    0.0000036221 RMS(Int)=    0.0000021703
 Iter   2:  RMS(Cart)=    0.0000000082 RMS(Int)=    0.0000000046
done
Storing new coordinates                 .... done

                                .--------------------.
          ----------------------|Geometry convergence|---------------------
          Item                value                 Tolerance   Converged
          -----------------------------------------------------------------
          Energy change      -0.00000155            0.00000100      NO
          RMS gradient        0.00002625            0.00003000      YES
          MAX gradient        0.00011229            0.00010000      NO
          RMS step            0.00123772            0.00060000      NO
          MAX step            0.00337045            0.00100000      NO
          ....................................................
          Max(Bonds)      0.0002      Max(Angles)    0.06
          Max(Dihed)        0.19      Max(Improp)    0.00
          -----------------------------------------------------------------

The optimization has not yet converged - more geometry cycles are needed


    ---------------------------------------------------------------------------
                         Redundant Internal Coordinates
                            (Angstroem and degrees)

        Definition                    Value    dE/dq     Step     New-Value
    ----------------------------------------------------------------------------
     1. B(C   1,C   0)                1.5135  0.000018 -0.0001    1.5135   
     2. B(N   2,C   1)                1.5395  0.000063 -0.0002    1.5393   
     3. B(C   3,C   1)                1.4870  0.000058 -0.0002    1.4868   
     4. B(C   4,C   3)                1.3401 -0.000025  0.0001    1.3401   
     5. B(C   5,C   4)                1.4938  0.000008  0.0000    1.4938   
     6. B(C   6,C   4)                1.4931  0.000010 -0.0001    1.4930   
     7. B(H   7,C   0)                1.0929 -0.000008  0.0001    1.0930   
     8. B(H   8,C   0)                1.0934 -0.000009  0.0001    1.0935   
     9. B(H   9,C   0)                1.0900  0.000001 -0.0001    1.0900   
    10. B(H  10,C   1)                1.0901 -0.000018  0.0000    1.0901   
    11. B(H  11,N   2)                1.0221 -0.000001  0.0000    1.0221   
    12. B(H  12,N   2)                1.0222  0.000003  0.0000    1.0223   
    13. B(H  13,N   2)                1.0210 -0.000002 -0.0000    1.0210   
    14. B(H  14,C   3)                1.0887 -0.000011  0.0001    1.0888   
    15. B(H  15,C   5)                1.0897 -0.000011  0.0000    1.0898   
    16. B(H  16,C   5)                1.0940  0.000015 -0.0002    1.0939   
    17. B(H  17,C   5)                1.0938 -0.000010  0.0001    1.0938   
    18. B(H  18,C   6)                1.0940  0.000001 -0.0000    1.0939   
    19. B(H  19,C   6)                1.0942  0.000000 -0.0001    1.0941   
    20. B(H  20,C   6)                1.0895  0.000004 -0.0000    1.0895   
    21. A(C   1,C   0,H   7)          112.42  0.000011   -0.01    112.42   
    22. A(C   1,C   0,H   8)          111.36 -0.000112    0.05    111.41   
    23. A(H   8,C   0,H   9)          107.42  0.000023   -0.01    107.41   
    24. A(H   7,C   0,H   9)          107.66 -0.000014   -0.00    107.66   
    25. A(H   7,C   0,H   8)          109.08  0.000052   -0.02    109.06   
    26. A(C   1,C   0,H   9)          108.71  0.000044   -0.02    108.69   
    27. A(N   2,C   1,C   3)          107.94  0.000039   -0.00    107.94   
    28. A(N   2,C   1,H  10)          103.95 -0.000036    0.02    103.97   
    29. A(C   0,C   1,H  10)          110.67  0.000060   -0.06    110.62   
    30. A(C   0,C   1,C   3)          114.11 -0.000056    0.03    114.14   
    31. A(C   0,C   1,N   2)          107.64 -0.000014    0.02    107.67   
    32. A(C   3,C   1,H  10)          111.88  0.000006   -0.02    111.87   
    33. A(H  12,N   2,H  13)          109.00  0.000004    0.01    109.00   
    34. A(H  11,N   2,H  13)          107.43  0.000016   -0.02    107.41   
    35. A(C   1,N   2,H  13)          110.24 -0.000028    0.01    110.25   
    36. A(H  11,N   2,H  12)          108.06 -0.000005    0.00    108.06   
    37. A(C   1,N   2,H  12)          112.19 -0.000006    0.01    112.20   
    38. A(C   1,N   2,H  11)          109.78  0.000020   -0.01    109.77   
    39. A(C   4,C   3,H  14)          118.40  0.000012   -0.00    118.39   
    40. A(C   1,C   3,H  14)          114.98 -0.000014    0.00    114.98   
    41. A(C   1,C   3,C   4)          126.55  0.000002    0.00    126.55   
    42. A(C   3,C   4,C   6)          120.03  0.000046   -0.02    120.01   
    43. A(C   5,C   4,C   6)          114.67  0.000016   -0.01    114.66   
    44. A(C   3,C   4,C   5)          125.30 -0.000062    0.03    125.32   
    45. A(H  16,C   5,H  17)          106.06 -0.000002   -0.00    106.05   
    46. A(H  15,C   5,H  17)          108.14  0.000016   -0.00    108.13   
    47. A(C   4,C   5,H  17)          109.94  0.000013   -0.00    109.93   
    48. A(H  15,C   5,H  16)          107.76  0.000018   -0.01    107.75   
    49. A(C   4,C   5,H  16)          109.66  0.000009   -0.00    109.66   
    50. A(C   4,C   5,H  15)          114.90 -0.000051    0.02    114.92   
    51. A(C   4,C   6,H  18)          110.43 -0.000040    0.02    110.45   
    52. A(H  19,C   6,H  20)          108.52  0.000003   -0.01    108.51   
    53. A(H  18,C   6,H  20)          108.75 -0.000009    0.02    108.77   
    54. A(C   4,C   6,H  20)          112.46  0.000010   -0.00    112.46   
    55. A(H  18,C   6,H  19)          106.37  0.000020   -0.01    106.35   
    56. A(C   4,C   6,H  19)          110.11  0.000018   -0.01    110.10   
    57. D(C   3,C   1,C   0,H   8)     54.36 -0.000017    0.16     54.51   
    58. D(C   3,C   1,C   0,H   7)    177.12 -0.000025    0.17    177.28   
    59. D(H  10,C   1,C   0,H   8)   -178.39 -0.000003    0.12   -178.28   
    60. D(N   2,C   1,C   0,H   8)    -65.41 -0.000023    0.13    -65.28   
    61. D(H  10,C   1,C   0,H   7)    -55.63 -0.000010    0.13    -55.51   
    62. D(N   2,C   1,C   0,H   9)    176.44 -0.000012    0.12    176.56   
    63. D(H  10,C   1,C   0,H   9)     63.46  0.000007    0.11     63.56   
    64. D(N   2,C   1,C   0,H   7)     57.35 -0.000030    0.14     57.49   
    65. D(C   3,C   1,C   0,H   9)    -63.79 -0.000007    0.15    -63.65   
    66. D(H  12,N   2,C   1,C   3)    179.33  0.000012   -0.00    179.33   
    67. D(H  12,N   2,C   1,C   0)    -57.06 -0.000041    0.05    -57.01   
    68. D(H  11,N   2,C   1,H  10)   -179.46  0.000008    0.00   -179.46   
    69. D(H  11,N   2,C   1,C   3)    -60.50  0.000015   -0.01    -60.51   
    70. D(H  12,N   2,C   1,H  10)     60.37  0.000004    0.01     60.38   
    71. D(H  11,N   2,C   1,C   0)     63.11 -0.000037    0.05     63.15   
    72. D(H  13,N   2,C   1,H  10)    -61.30  0.000023   -0.02    -61.32   
    73. D(H  13,N   2,C   1,C   3)     57.65  0.000030   -0.03     57.63   
    74. D(H  13,N   2,C   1,C   0)   -178.74 -0.000022    0.03   -178.71   
    75. D(H  14,C   3,C   1,H  10)   -167.33 -0.000003   -0.12   -167.44   
    76. D(H  14,C   3,C   1,N   2)     78.90  0.000014   -0.13     78.77   
    77. D(H  14,C   3,C   1,C   0)    -40.70  0.000039   -0.18    -40.88   
    78. D(C   4,C   3,C   1,H  10)      9.49 -0.000001   -0.13      9.36   
    79. D(C   4,C   3,C   1,N   2)   -104.29  0.000015   -0.15   -104.44   
    80. D(C   4,C   3,C   1,C   0)    136.11  0.000040   -0.19    135.92   
    81. D(C   6,C   4,C   3,H  14)     -0.89  0.000003   -0.01     -0.90   
    82. D(C   6,C   4,C   3,C   1)   -177.61  0.000002    0.01   -177.60   
    83. D(C   5,C   4,C   3,H  14)    177.88  0.000003   -0.02    177.86   
    84. D(C   5,C   4,C   3,C   1)      1.16  0.000001   -0.01      1.15   
    85. D(H  16,C   5,C   4,C   3)   -119.09  0.000022   -0.15   -119.25   
    86. D(H  15,C   5,C   4,C   6)   -178.74  0.000017   -0.17   -178.91   
    87. D(H  15,C   5,C   4,C   3)      2.43  0.000018   -0.15      2.28   
    88. D(H  17,C   5,C   4,C   6)    -56.50  0.000012   -0.16    -56.66   
    89. D(H  17,C   5,C   4,C   3)    124.67  0.000012   -0.14    124.53   
    90. D(H  16,C   5,C   4,C   6)     59.73  0.000022   -0.17     59.56   
    91. D(H  20,C   6,C   4,C   5)    179.95 -0.000013   -0.01    179.94   
    92. D(H  20,C   6,C   4,C   3)     -1.15 -0.000015   -0.03     -1.18   
    93. D(H  19,C   6,C   4,C   5)    -58.90  0.000010   -0.04    -58.93   
    94. D(H  19,C   6,C   4,C   3)    120.00  0.000008   -0.05    119.95   
    95. D(H  18,C   6,C   4,C   5)     58.27  0.000020   -0.05     58.22   
    96. D(H  18,C   6,C   4,C   3)   -122.84  0.000019   -0.06   -122.90   
    ----------------------------------------------------------------------------

         *************************************************************
         *                GEOMETRY OPTIMIZATION CYCLE   3            *
         *************************************************************
---------------------------------
CARTESIAN COORDINATES (ANGSTROEM)
---------------------------------
  C      2.212273   -0.002008    1.144431
  C      0.744462   -0.292282    0.916711
  N      0.000395    0.003333    2.231380
  C      0.121761    0.527401   -0.156123
  C     -0.707601    0.091161   -1.114166
  C     -1.185113   -1.315855   -1.268300
  C     -1.208109    1.036431   -2.155839
  H      2.629419   -0.585161    1.969449
  H      2.384013    1.060820    1.335714
  H      2.764261   -0.264370    0.241908
  H      0.584233   -1.358741    0.757601
  H      0.087056    0.995287    2.462172
  H      0.371272   -0.537999    3.015248
  H     -0.994665   -0.200499    2.127811
  H      0.425502    1.572877   -0.170901
  H     -0.837411   -2.005570   -0.499527
  H     -0.865722   -1.708686   -2.237937
  H     -2.278658   -1.339639   -1.277648
  H     -2.301862    1.056435   -2.159857
  H     -0.902570    0.696501   -3.149923
  H     -0.839448    2.051041   -2.008846

----------------------------
CARTESIAN COORDINATES (A.U.)
----------------------------
  NO LB      ZA    FRAG    MASS        X           Y           Z
   0 C     6.0000    0    12.011          4.180589165772916         -0.003794895702156          2.162661206811455
   1 C     6.0000    0    12.011          1.406829162848795         -0.552333643864310          1.732333058658121
   2 N     7.0000    0    14.007          0.000746788529754          0.006299086879558          4.216697077579097
   3 C     6.0000    0    12.011          0.230094262358556          0.996643663022960         -0.295029384655552
   4 C     6.0000    0    12.011         -1.337173015074032          0.172269333072046         -2.105469090733225
   5 C     6.0000    0    12.011         -2.239539259067039         -2.486605181568514         -2.396740300971510
   6 C     6.0000    0    12.011         -2.282995347951156          1.958571614214705         -4.073944557766233
   7 H     1.0000    0     1.008          4.968881929442802         -1.105794532313938          3.721719813848931
   8 H     1.0000    0     1.008          4.505131910338029          2.004659197455633          2.524134263428589
   9 H     1.0000    0     1.008          5.223695308120901         -0.499587827087431          0.457140082841089
  10 H     1.0000    0     1.008          1.104041030366018         -2.567648384015499          1.431657497605238
  11 H     1.0000    0     1.008          0.164511777245698          1.880819698110731          4.652830130366413
  12 H     1.0000    0     1.008          0.701601924067446         -1.016670480286712          5.697992455774489
  13 H     1.0000    0     1.008         -1.879643636721754         -0.378887875835818          4.020979932071120
  14 H     1.0000    0     1.008          0.804082127817475          2.972307592950800         -0.322955180034271
  15 H     1.0000    0     1.008         -1.582477695484140         -3.789977175022623         -0.943969156392295
  16 H     1.0000    0     1.008         -1.635977223469197         -3.228948293442854         -4.229087271019565
  17 H     1.0000    0     1.008         -4.306039602332080         -2.531551622453993         -2.414404416507706
  18 H     1.0000    0     1.008         -4.349888971668867          1.996372397891365         -4.081537277249680
  19 H     1.0000    0     1.008         -1.705610547045324          1.316195229352443         -5.952491623479495
  20 H     1.0000    0     1.008         -1.586327379604040          3.875905913404925         -3.796168732330166

--------------------------------
INTERNAL COORDINATES (ANGSTROEM)
--------------------------------
 C      0   0   0   0.000000     0.000     0.000
 C      1   0   0   1.513467     0.000     0.000
 N      2   1   0   1.539278   107.666     0.000
 C      2   1   3   1.486812   114.143   119.796
 C      4   2   1   1.340147   126.553   135.920
 C      5   4   2   1.493810   125.323     1.154
 C      5   4   2   1.493026   120.009   182.400
 H      1   2   3   1.093039   112.419    57.486
 H      1   2   3   1.093475   111.411   294.718
 H      1   2   3   1.089987   108.687   176.556
 H      2   1   3   1.090102   110.619   247.007
 H      3   2   1   1.022129   109.770    63.151
 H      3   2   1   1.022271   112.200   302.987
 H      3   2   1   1.020989   110.251   181.289
 H      4   2   1   1.088806   114.981   319.121
 H      6   5   4   1.089778   114.919     2.282
 H      6   5   4   1.093856   109.657   240.753
 H      6   5   4   1.093843   109.934   124.528
 H      7   5   4   1.093943   110.445   237.101
 H      7   5   4   1.094126   110.095   119.949
 H      7   5   4   1.089472   112.461   358.818

---------------------------
INTERNAL COORDINATES (A.U.)
---------------------------
 C      0   0   0   0.000000     0.000     0.000
 C      1   0   0   2.860039     0.000     0.000
 N      2   1   0   2.908815   107.666     0.000
 C      2   1   3   2.809668   114.143   119.796
 C      4   2   1   2.532511   126.553   135.920
 C      5   4   2   2.822892   125.323     1.154
 C      5   4   2   2.821409   120.009   182.400
 H      1   2   3   2.065544   112.419    57.486
 H      1   2   3   2.066368   111.411   294.718
 H      1   2   3   2.059778   108.687   176.556
 H      2   1   3   2.059995   110.619   247.007
 H      3   2   1   1.931543   109.770    63.151
 H      3   2   1   1.931813   112.200   302.987
 H      3   2   1   1.929389   110.251   181.289
 H      4   2   1   2.057545   114.981   319.121
 H      6   5   4   2.059382   114.919     2.282
 H      6   5   4   2.067089   109.657   240.753
 H      6   5   4   2.067065   109.934   124.528
 H      7   5   4   2.067253   110.445   237.101
 H      7   5   4   2.067598   110.095   119.949
 H      7   5   4   2.058805   112.461   358.818



           ************************************************************
           *        Program running with 8 parallel MPI-processes     *
           *              working on a common directory               *
           ************************************************************
           ************************************************************
           *              Shut down parallel processing               *
           ************************************************************


           ************************************************************
           *        Program running with 8 parallel MPI-processes     *
           *              working on a common directory               *
           ************************************************************

Diagonalization of the overlap matrix:
Smallest eigenvalue                        ... 7.176e-05
Time for diagonalization                   ...    0.245 sec
Threshold for overlap eigenvalues          ... 1.000e-08
Number of eigenvalues below threshold      ... 0
Time for construction of square roots      ...    0.020 sec
Total time needed                          ...    0.266 sec

-------------------
DFT GRID GENERATION
-------------------

General Integration Accuracy     IntAcc      ...  4.340
Radial Grid Type                 RadialGrid  ... Gauss-Chebyshev
Angular Grid (max. acc.)         AngularGrid ... Lebedev-194
Angular grid pruning method      GridPruning ... 3 (G Style)
Weight generation scheme         WeightScheme... Becke
Basis function cutoff            BFCut       ...    1.0000e-11
Integration weight cutoff        WCut        ...    1.0000e-14
Grids for H and He will be reduced by one unit

# of grid points (after initial pruning)     ...  44398 (   0.0 sec)
# of grid points (after weights+screening)   ...  40369 (   0.3 sec)
nearest neighbour list constructed           ...    0.0 sec
Grid point re-assignment to atoms done       ...    0.0 sec
Grid point division into batches done        ...    0.1 sec
Reduced shell lists constructed in    0.1 sec

Total number of grid points                  ...    40369
Total number of batches                      ...      643
Average number of points per batch           ...       62
Average number of grid points per atom       ...     1922
Average number of shells per batch           ...   101.43 (76.26%)
Average number of basis functions per batch  ...   236.18 (78.47%)
Average number of large shells per batch     ...    81.79 (80.64%)
Average number of large basis fcns per batch ...   189.40 (80.19%)
Maximum spatial batch extension              ...   2.22,  2.66,  2.95 au
Average spatial batch extension              ...   0.14,  0.14,  0.15 au

Time for grid setup =    0.638 sec

--------------
SCF ITERATIONS
--------------
ITER       Energy         Delta-E        Max-DP      RMS-DP      [F,P]     Damp
               ***  Starting incremental Fock matrix formation  ***
                      *** Initiating the SOSCF procedure ***
                      *** Re-Reading the Fockian *** 
                      *** Removing any level shift *** 
ITER      Energy       Delta-E        Grad      Rot      Max-DP    RMS-DP
  0   -291.32481381 -291.3248138079  0.000192  0.000192  0.000484  0.000012
               *** Restarting incremental Fock matrix formation ***
  1   -291.32481962  -0.0000058135  0.000073  0.000187  0.000195  0.000005
  2   -291.32482024  -0.0000006150  0.000014  0.000046  0.000041  0.000001
  3   -291.32482024  -0.0000000059  0.000022  0.000040  0.000023  0.000000
  4   -291.32482025  -0.0000000085  0.000008  0.000015  0.000011  0.000000
  5   -291.32482025  -0.0000000006  0.000004  0.000005  0.000004  0.000000
                 **** Energy Check signals convergence ****
              ***Rediagonalizing the Fockian in SOSCF/NRSCF***

               *****************************************************
               *                     SUCCESS                       *
               *           SCF CONVERGED AFTER   6 CYCLES          *
               *****************************************************

Setting up the final grid:

General Integration Accuracy     IntAcc      ...  5.010
Radial Grid Type                 RadialGrid  ... Gauss-Chebyshev
Angular Grid (max. acc.)         AngularGrid ... Lebedev-434
Angular grid pruning method      GridPruning ... 3 (G Style)
Weight generation scheme         WeightScheme... Becke
Basis function cutoff            BFCut       ...    1.0000e-11
Integration weight cutoff        WCut        ...    1.0000e-14
Grids for H and He will be reduced by one unit

# of grid points (after initial pruning)     ... 168466 (   0.0 sec)
# of grid points (after weights+screening)   ... 151310 (   1.8 sec)
nearest neighbour list constructed           ...    0.0 sec
Grid point re-assignment to atoms done       ...    0.1 sec
Grid point division into batches done        ...    1.4 sec
Reduced shell lists constructed in    1.9 sec

Total number of grid points                  ...   151310
Total number of batches                      ...     2376
Average number of points per batch           ...       63
Average number of grid points per atom       ...     7205
Average number of shells per batch           ...   101.02 (75.95%)
Average number of basis functions per batch  ...   236.41 (78.54%)
Average number of large shells per batch     ...    80.86 (80.05%)
Average number of large basis fcns per batch ...   187.33 (79.24%)
Maximum spatial batch extension              ...   2.43,  2.11,  2.52 au
Average spatial batch extension              ...   0.10,  0.10,  0.10 au

Final grid set up in    4.0 sec
Final integration                            ... done (   1.4 sec)
Change in XC energy                          ...     0.000581454
Integrated number of electrons               ...    56.000031310
Previous integrated no of electrons          ...    56.001222253
Total Energy       :         -291.32423880 Eh           -7927.33556 eV
  Last Energy change         ...   -8.1894e-10  Tolerance :   1.0000e-08
  Last MAX-Density change    ...    1.8693e-06  Tolerance :   1.0000e-07
             **** THE GBW FILE WAS UPDATED (2470_+.gbw) ****
             **** DENSITY FILE WAS UPDATED (2470_+.scfp.tmp) ****
             **** ENERGY FILE WAS UPDATED (2470_+.en.tmp) ****
Total SCF time: 0 days 0 hours 0 min 54 sec 
           ************************************************************
           *              Shut down parallel processing               *
           ************************************************************

-------------------------   --------------------
FINAL SINGLE POINT ENERGY      -291.324238797985
-------------------------   --------------------



           ************************************************************
           *        Program running with 8 parallel MPI-processes     *
           *              working on a common directory               *
           ************************************************************
------------------------------------------------------------------------------
                         ORCA SCF GRADIENT CALCULATION
------------------------------------------------------------------------------

Gradient of the Kohn-Sham DFT energy:
Kohn-Sham wavefunction type      ... RKS
Hartree-Fock exchange scaling    ...    0.250
Number of operators              ...    1
Number of atoms                  ...   21
Basis set dimensions             ...  301
Integral neglect threshold       ... 2.5e-11
Integral primitive cutoff        ... 2.5e-12

Nuclear repulsion gradient       ... done
One Electron Gradient            ... done
Pre-screening matrix             ... done
Starting the two electron gradient:
Two electron gradient done
[...]
     39      -0.017663  -0.000295   0.000207   0.001191  -0.000529  -0.000792
     40       0.089378   0.000102  -0.000556  -0.000127  -0.000031  -0.000134
     41      -0.023300   0.000070  -0.001386   0.000331   0.000074  -0.000105
     42       0.159794   0.000362   0.003588   0.005900   0.000681  -0.000020
     43      -0.245215   0.002420   0.008624   0.023474  -0.000052  -0.003235
     44       0.271700  -0.000442   0.001487  -0.001600  -0.000433  -0.000607
     45       0.138560   0.070189  -0.003745  -0.134468   0.008602   0.011280
     46       0.200099  -0.123392   0.006593   0.242680  -0.002261  -0.004138
     47       0.119429   0.148069  -0.007812  -0.286113  -0.005914  -0.005949
     48      -0.194083   0.092525  -0.004371  -0.167555  -0.108307  -0.162269
     49      -0.083834  -0.103232   0.004883   0.188992   0.138985   0.211030
     50      -0.055765  -0.266671   0.012629   0.487440   0.351043   0.528194
     51      -0.020558  -0.303725   0.013513   0.556697  -0.384396  -0.581599
     52      -0.130144  -0.001122  -0.000054   0.003105  -0.008400  -0.014564
     53      -0.177354   0.001158   0.000028  -0.000944  -0.009040  -0.013859
     54      -0.019408   0.557800   0.013670   0.295871   0.587620  -0.388013
     55      -0.009469  -0.007916  -0.000164  -0.004028  -0.004034   0.003459
     56      -0.203978  -0.008645  -0.000208  -0.003705   0.010662  -0.007989
     57      -0.180363  -0.167994  -0.004480  -0.089198   0.155110  -0.102496
     58       0.038473   0.179027   0.004775   0.096074  -0.184636   0.121715
     59      -0.090015   0.508783   0.014024   0.272919  -0.534218   0.355273
     60       0.118267  -0.131890  -0.003419  -0.073344  -0.017037   0.010076
     61      -0.067446  -0.347765  -0.009032  -0.196636  -0.008395   0.006997
     62       0.185471  -0.059432  -0.001559  -0.032070   0.007244  -0.003591
                 54         55         56         57         58         59    
      0       0.011601   0.008436  -0.000136   0.003070   0.004031  -0.025683
      1      -0.056513  -0.062324  -0.004192   0.010720  -0.001677   0.029902
      2       0.015412   0.029511   0.003746  -0.021441  -0.014600   0.078735
      3       0.008880  -0.006544  -0.001433   0.004954   0.000957   0.001516
      4       0.060903  -0.044541  -0.004314   0.030608   0.004747   0.014652
      5       0.008552  -0.005382  -0.001698   0.004469   0.000785   0.003370
      6      -0.000454   0.000397   0.000229  -0.000348  -0.000175   0.000686
      7      -0.002106   0.001344  -0.000340  -0.000592   0.000059  -0.000448
      8       0.000049  -0.000033   0.000175   0.000172   0.000022  -0.000446
      9      -0.003626   0.008539  -0.016680   0.015316   0.005380   0.003573
     10      -0.012068   0.028262  -0.054333   0.048357   0.018193   0.011048
     11      -0.000235   0.000574  -0.000564   0.001020  -0.000145   0.000057
     12       0.000768  -0.001336   0.000792  -0.002405   0.000856  -0.000299
     13       0.000451  -0.000426  -0.000744  -0.000597   0.000625  -0.000018
     14       0.000663  -0.001741   0.001456  -0.003222   0.000938  -0.000559
     15       0.008186  -0.010377  -0.029120  -0.025812  -0.000465  -0.003370
     16      -0.003961   0.007152   0.027495   0.022790   0.000262   0.003058
     17       0.009602  -0.016864  -0.052400  -0.046518  -0.001145  -0.006098
     18       0.000836  -0.001072   0.007064  -0.009181   0.040962   0.005026
     19      -0.000393  -0.000940   0.011792  -0.015783   0.072658   0.008991
     20      -0.000365  -0.000565   0.005190  -0.006928   0.029308   0.003551
     21      -0.166807  -0.205465  -0.014387   0.065858   0.025088  -0.095506
     22       0.236326   0.284938   0.022919  -0.093896  -0.036816   0.138680
     23      -0.344574  -0.410679  -0.030817   0.128855   0.047888  -0.173122
     24       0.067241   0.080086   0.007101  -0.016735   0.002660  -0.050443
     25       0.429170   0.488629   0.034600  -0.084255   0.019253  -0.287321
     26       0.082407   0.096116   0.007787  -0.020691   0.000399  -0.038378
     27      -0.038845   0.027061   0.011791  -0.088948  -0.076438   0.447276
     28       0.006638  -0.026883  -0.006782   0.045990   0.037010  -0.211070
     29       0.075726  -0.037615  -0.018696   0.144604   0.124661  -0.729962
     30      -0.108715   0.082415   0.006477  -0.055106  -0.008310  -0.026970
     31      -0.722235   0.513944   0.048278  -0.363233  -0.059346  -0.168380
     32      -0.111486   0.079498   0.006979  -0.053844  -0.007980  -0.026848
     33       0.002997  -0.005339  -0.000191   0.002370  -0.000036   0.003016
     34       0.021486  -0.011543   0.002263   0.005527  -0.000109   0.002951
     35       0.002040   0.001038   0.003243  -0.004204  -0.001452  -0.001363
     36      -0.001179   0.004469  -0.000853  -0.001806  -0.000085   0.000893
     37       0.002350  -0.001729   0.001438   0.000260  -0.000509   0.001188
     38      -0.000347  -0.003143  -0.000339   0.000915   0.000411  -0.000462
     39      -0.000169  -0.001931  -0.001633   0.000196   0.000153  -0.001216
     40       0.001718   0.000482   0.000044   0.001076   0.000402  -0.000307
     41       0.002690  -0.002590  -0.000407   0.002573   0.000738  -0.000754
     42       0.040446  -0.095829   0.185512  -0.160775  -0.064467  -0.037911
     43       0.141703  -0.325152   0.642609  -0.563831  -0.217955  -0.130713
     44      -0.001480   0.003628  -0.012652   0.013599   0.002426   0.003611
     45      -0.031213   0.060308   0.214606   0.187956   0.005465   0.025852
     46       0.064486  -0.117420  -0.403269  -0.351353  -0.009911  -0.047589
     47      -0.072414   0.133117   0.462384   0.403099   0.011464   0.054963
     48       0.016020  -0.027141  -0.073853  -0.066832  -0.000383  -0.008243
     49      -0.017792   0.031516   0.082600   0.076414  -0.000252   0.009334
     50      -0.038442   0.069311   0.181991   0.169341   0.001369   0.020772
     51      -0.079798   0.089793   0.215887   0.194673  -0.001807   0.023770
     52      -0.002265   0.003288   0.008008   0.008078  -0.000784   0.000984
     53       0.001456  -0.003323  -0.013239  -0.010962   0.000184  -0.001436
     54      -0.011247   0.012715  -0.048916   0.071338  -0.291711  -0.034954
     55       0.000575  -0.001163   0.003008  -0.005243   0.017410   0.001886
     56      -0.000387   0.000264   0.001371  -0.001532   0.008273   0.001071
     57      -0.000998  -0.002237   0.014724  -0.022498   0.089976   0.010669
     58       0.001587   0.001368  -0.012475   0.018423  -0.074488  -0.008941
     59       0.003351   0.006870  -0.041082   0.064529  -0.247109  -0.028851
     60       0.001087   0.003641  -0.048633   0.062659  -0.293962  -0.036554
     61       0.003516   0.008721  -0.129007   0.169225  -0.804423  -0.100375
     62       0.000060   0.002040  -0.021444   0.026653  -0.121994  -0.015055
                  60         61         62    
      0       0.000002   0.000046   0.000413
      1      -0.000355   0.000582   0.000164
      2      -0.000375  -0.000143   0.000217
      3      -0.000560   0.000003  -0.000453
      4       0.001125  -0.001900  -0.000677
      5       0.001981  -0.000527  -0.000071
      6      -0.013928   0.006628  -0.071882
      7       0.007488  -0.077582  -0.015467
      8       0.036509   0.021926  -0.033997
      9      -0.000015   0.000289   0.000047
     10      -0.000299   0.000846  -0.000002
     11      -0.000134   0.000086  -0.000054
     12      -0.000017  -0.000241   0.000218
     13       0.000115  -0.000146   0.000097
     14       0.000058  -0.000153   0.000122
     15       0.000049   0.000021  -0.000025
     16      -0.000010   0.000004   0.000060
     17      -0.000040   0.000045  -0.000124
     18      -0.000039   0.000092  -0.000060
     19      -0.000025   0.000038   0.000008
     20       0.000018   0.000019   0.000006
     21      -0.000795   0.000461  -0.000256
     22       0.000347  -0.001335   0.000654
     23      -0.000445   0.001251  -0.001279
     24      -0.000335   0.000620   0.000363
     25       0.002575  -0.003530  -0.000835
     26       0.000812  -0.000241  -0.000413
     27       0.002489  -0.000421   0.000977
     28       0.000066   0.000117  -0.000558
     29      -0.000730   0.000381  -0.001369
     30       0.000545   0.001229   0.001440
     31      -0.010544   0.019830   0.007471
     32      -0.004771   0.005262   0.002224
     33      -0.059701   0.075537   0.012160
     34      -0.562303   0.740494   0.274970
     35      -0.113973   0.170398   0.054409
     36      -0.240039  -0.240715   0.153490
     37       0.345645   0.334993  -0.238546
     38      -0.472753  -0.484247   0.324535
     39       0.498098   0.071538   0.829826
     40       0.111010  -0.000579   0.178049
     41       0.067120   0.011612   0.092445
     42       0.000899  -0.002128  -0.000746
     43       0.002509  -0.004696  -0.000409
     44       0.000023  -0.000557  -0.000061
     45       0.000452  -0.000175   0.000950
     46      -0.000005   0.000244  -0.001306
     47       0.000319  -0.000218   0.001087
     48      -0.000120  -0.000005  -0.000265
     49      -0.000217   0.000056  -0.000192
     50      -0.000058  -0.000233   0.000507
     51      -0.000762  -0.000104  -0.000706
     52      -0.000048  -0.000003  -0.000235
     53      -0.000282  -0.000046  -0.000463
     54      -0.000458  -0.000262  -0.000105
     55       0.000188  -0.000136   0.000248
     56      -0.000266   0.000115  -0.000282
     57       0.000084  -0.000028   0.000072
     58       0.000007  -0.000112  -0.000034
     59      -0.000310  -0.000152  -0.000081
     60       0.000096  -0.000154  -0.000026
     61       0.000145  -0.000409  -0.000167
     62       0.000016   0.000037   0.000019


-----------
IR SPECTRUM
-----------

 Mode    freq (cm**-1)   T**2         TX         TY         TZ
-------------------------------------------------------------------
   6:        46.05    5.574412  ( -1.174647  -1.627382  -1.243481)
   7:       123.13    5.904047  (  1.769339  -1.509173   0.704189)
   8:       130.10    0.254523  ( -0.186645  -0.034555  -0.467432)
   9:       189.98    1.965050  (  0.035507   0.813385   1.141137)
  10:       201.79    1.864995  ( -0.282295  -0.648345   1.168312)
  11:       217.46    0.331014  ( -0.524024  -0.150010  -0.184146)
  12:       254.70    1.980478  ( -0.842795  -1.038487  -0.437859)
  13:       303.80    3.938914  (  1.681169  -0.483400   0.937501)
  14:       401.95    1.861823  (  0.940243   0.478828   0.865153)
  15:       411.81    8.237323  ( -1.872505   0.288318   2.155904)
  16:       451.07    5.596344  ( -1.377842  -1.241823   1.468254)
  17:       505.12    0.915787  (  0.436335  -0.669336   0.526677)
  18:       519.60    1.299126  (  0.111108  -0.652291  -0.928061)
  19:       772.82   19.062749  ( -0.461185   1.073800  -4.206781)
  20:       827.66    2.822277  (  0.403026   0.349440  -1.593028)
  21:       843.42   26.858890  (  2.424910  -0.854466  -4.499843)
  22:       922.60    6.472982  (  1.908287   1.105867   1.268258)
  23:       943.59    6.660481  ( -1.018877  -0.388464   2.339116)
  24:       958.03    1.240924  ( -0.647235   0.219883  -0.879581)
  25:       976.21   11.346922  ( -2.704274   0.507226  -1.943334)
  26:       991.75    6.296567  (  2.006326  -0.669745  -1.350061)
  27:      1079.70   30.677741  ( -2.809583   1.865046   4.393812)
  28:      1090.26   14.561689  ( -2.402507   0.347318  -2.944320)
  29:      1096.63    1.642313  ( -1.007095   0.443318   0.656919)
  30:      1151.20    1.265225  ( -0.751546  -0.822810  -0.152929)
  31:      1206.13   41.808967  (  3.963627  -0.553536   5.078605)
  32:      1258.28    9.518356  (  1.273900  -1.636775   2.283966)
  33:      1334.02   10.449320  ( -1.891361   0.558891  -2.561194)
  34:      1374.04   15.463278  (  1.600508   1.589030  -3.221279)
  35:      1395.07    0.958872  ( -0.601989   0.075889   0.768585)
  36:      1411.53   15.254673  ( -1.721919   2.156903  -2.763591)
  37:      1414.98   17.897249  (  0.857706   3.607661   2.036265)
  38:      1418.70   35.051369  (  5.122896   1.810511  -2.351458)
  39:      1453.49    0.124868  (  0.155249   0.258840  -0.183761)
  40:      1470.25    9.514400  ( -0.193409   2.830558   1.210345)
  41:      1475.27  125.082659  (  4.149043  -1.866474 -10.216867)
  42:      1478.20   48.514775  (  1.010558  -2.693550  -6.343369)
  43:      1479.16   14.237451  (  3.439432  -1.192310  -0.993054)
  44:      1488.75   11.170362  (  2.849595   1.388803  -1.058961)
  45:      1489.11   15.543694  ( -2.862921   2.206466  -1.574447)
  46:      1645.62   48.578264  ( -3.233386  -6.174258   0.044943)
  47:      1654.14   38.900962  ( -4.497261   2.444757  -3.563534)
  48:      1724.73   66.741097  (  4.266303   1.158839   6.869996)
  49:      3049.43    2.926822  ( -0.572800   1.092212  -1.185662)
  50:      3053.82    5.322392  (  0.617836   0.574906   2.147127)
  51:      3055.10    1.923596  ( -0.831767  -1.098205  -0.160332)
  52:      3108.87    0.467559  ( -0.558985   0.254986   0.300128)
  53:      3113.66    2.464268  (  1.405637  -0.271775  -0.643888)
  54:      3118.43    1.817971  (  0.699462  -0.937036   0.671333)
  55:      3134.31    2.032313  (  0.386675  -1.196543   0.671625)
  56:      3145.88    7.610003  ( -1.070833   1.238675  -2.220136)
  57:      3150.54   17.804718  ( -1.434193   2.940291  -2.665051)
  58:      3155.67    9.781327  (  0.660693   3.053135  -0.152237)
  59:      3157.75    2.939943  (  1.100993   1.270813   0.335846)
  60:      3415.49   30.852787  (  1.851387  -0.862719  -5.165353)
  61:      3508.01   69.805586  ( -0.503826   8.229322  -1.352779)
  62:      3519.96   65.629892  (  7.397329   1.670765   2.849202)

The first frequency considered to be a vibration is 6
The total number of vibrations considered is 57


--------------------------
THERMOCHEMISTRY AT 298.15K
--------------------------

Temperature         ... 298.15 K
Pressure            ... 1.00 atm
Total Mass          ... 100.18 AMU

Throughout the following assumptions are being made:
  (1) The electronic state is orbitally nondegenerate
  (2) There are no thermally accessible electronically excited states
  (3) Hindered rotations indicated by low frequency modes) are not
      treated as such but are treated as vibrations and this may
      case some error
  (4) All equations used are the standard statistical mechanics
      equations for an ideal gas
  (5) All vibrations are strinctly harmonic


------------
INNER ENERGY
------------

The inner energy is: U= E(el) + E(ZPE) + E(vib) + E(rot) + E(trans)
    E(el)   - is the total energy from the electronic structure calculation
              = E(kin-el) + E(nuc-el) + E(el-el) + E(nuc-nuc)
    E(ZPE)  - the the zero temperature vibrational energy from the frequency calculation
    E(vib)  - the the finite temperature correction to E(ZPE) due to population
              of excietd vibrational states
    E(rot)  - is the rotational thermal energy
    E(trans)- is the translational thermal energy

Summary of contributions to the inner energy U:
Electronic energy                ...   -291.32423918 Eh
Zero point energy                ...      0.19653487 Eh     123.33 kcal/mol
Thermal vibrational correction   ...      0.00673701 Eh       4.23 kcal/mol
Thermal rotational correction    ...      0.00141627 Eh       0.89 kcal/mol
Thermal translational correction ...      0.00141627 Eh       0.89 kcal/mol
-----------------------------------------------------------------------
Total thermal energy                   -291.11813476 Eh


Summary of corrections to the electronic energy:
(perhaps to be used in another calculation)
Total thermal correction                  0.00956955 Eh       6.00 kcal/mol
Non-thermal (ZPE) correction              0.19653487 Eh     123.33 kcal/mol
-----------------------------------------------------------------------
Total correction                          0.20610442 Eh     129.33 kcal/mol


--------
ENTHALPY
--------

The enthalpy is H = U + kB*T
                kB is Boltzmann's constant
Total free energy                 ...   -291.11813476 Eh 
Thermal Enthalpy correction       ...      0.00094421 Eh       0.59 kcal/mol
-----------------------------------------------------------------------
Total Enthalpy                    ...   -291.11719055 Eh


-------
ENTROPY
-------

The entropy contributions are T*S = T*(S(el)+S(vib)+S(rot)+S(trans)
     S(el)   - electronic entropy
     S(vib)  - vibrational entropy
     S(rot)  - rotational entropy
     S(trans)- translational entropy
The entropies will be listed as mutliplied by the temperature to get
units of energy

Electronic entropy                ...      0.00000000 Eh      0.00 kcal/mol
Vibrational entropy               ...      0.01235628 Eh      7.75 kcal/mol
Rotational entropy                ...      0.01233850 Eh      7.74 kcal/mol
Translational entropy             ...      0.01887386 Eh     11.84 kcal/mol
-----------------------------------------------------------------------
Final entropy term                ...      0.04356864 Eh     27.34 kcal/mol


CAUTION: The rotational entropy is not quite correctly treated here
         because it includes a symmetry number that is not yet correctly
         implemented in ORCA!
For a nonlinear molecule the correct rotational entropy is:
    S(rot) = R*(ln(qrot/sn)+1.5)
    R    = 8.31441 J/mol/K = 1.987191683e-3 kcal/mol/K
    qrot = 316968.3750986
    sn is the rotational symmetry number. We have assumed 3 here
       if it is different for your molecule then you should correct
       the printed rotational entropy by manually evaluating the equation
       as given above

For convenience we print out the resulting values for sn=1 - 12:
 sn= 1  qrot/sn=  316968.3751 T*S(rot)=     8.39 kcal/mol T*S(tot)=    27.99 kcal/mol
 sn= 2  qrot/sn=  158484.1875 T*S(rot)=     7.98 kcal/mol T*S(tot)=    27.58 kcal/mol
 sn= 3  qrot/sn=  105656.1250 T*S(rot)=     7.74 kcal/mol T*S(tot)=    27.34 kcal/mol
 sn= 4  qrot/sn=   79242.0938 T*S(rot)=     7.57 kcal/mol T*S(tot)=    27.17 kcal/mol
 sn= 5  qrot/sn=   63393.6750 T*S(rot)=     7.44 kcal/mol T*S(tot)=    27.04 kcal/mol
 sn= 6  qrot/sn=   52828.0625 T*S(rot)=     7.33 kcal/mol T*S(tot)=    26.93 kcal/mol
 sn= 7  qrot/sn=   45281.1964 T*S(rot)=     7.24 kcal/mol T*S(tot)=    26.84 kcal/mol
 sn= 8  qrot/sn=   39621.0469 T*S(rot)=     7.16 kcal/mol T*S(tot)=    26.76 kcal/mol
 sn= 9  qrot/sn=   35218.7083 T*S(rot)=     7.09 kcal/mol T*S(tot)=    26.69 kcal/mol
 sn=10  qrot/sn=   31696.8375 T*S(rot)=     7.03 kcal/mol T*S(tot)=    26.63 kcal/mol
 sn=11  qrot/sn=   28815.3068 T*S(rot)=     6.97 kcal/mol T*S(tot)=    26.57 kcal/mol
 sn=12  qrot/sn=   26414.0313 T*S(rot)=     6.92 kcal/mol T*S(tot)=    26.52 kcal/mol


-------------------
GIBBS FREE ENTHALPY
-------------------

The Gibbs free enthalpy is G = H - T*S

Total enthalpy                    ...   -291.11719055 Eh 
Total entropy correction          ...     -0.04356864 Eh    -27.34 kcal/mol
-----------------------------------------------------------------------
Final Gibbs free enthalpy         ...   -291.16075919 Eh

For completeness - the Gibbs free enthalpy minus the electronic energy
G-E(el)                           ...      0.16347999 Eh    102.59 kcal/mol


Timings for individual modules:

Sum of individual times         ...     2803.584 sec (=  46.726 min)
GTO integral calculation        ...        8.620 sec (=   0.144 min)   0.3 %
SCF iterations                  ...      257.272 sec (=   4.288 min)   9.2 %
SCF Gradient evaluation         ...      121.256 sec (=   2.021 min)   4.3 %
Geometry relaxation             ...        0.251 sec (=   0.004 min)   0.0 %
Analytical frequency calculation...     2416.185 sec (=  40.270 min)  86.2 %
                             ****ORCA TERMINATED NORMALLY****
TOTAL RUN TIME: 0 days 0 hours 46 minutes 45 seconds 314 msec
