
                                 *****************
                                 * O   R   C   A *
                                 *****************

           --- An Ab Initio, DFT and Semiempirical electronic structure package ---

                  #######################################################
                  #                        -***-                        #
                  #  Department of molecular theory and spectroscopy    #
                  #              Directorship: Frank Neese              #
                  # Max Planck Institute for Chemical Energy Conversion #
                  #                  D-45470 Muelheim/Ruhr              #
                  #                       Germany                       #
                  #                                                     #
                  #                  All rights reserved                #
                  #                        -***-                        #
                  #######################################################


                         Program Version 3.0.3 - RELEASE   -


 With contributions from (in alphabetic order):
   Ute Becker             : Parallelization
   Dmytro Bykov           : SCF Hessian
   Dmitry Ganyushin       : Spin-Orbit,Spin-Spin,Magnetic field MRCI
   Andreas Hansen         : Spin unrestricted coupled pair/coupled cluster methods
   Dimitrios Liakos       : Extrapolation schemes; parallel MDCI
   Robert Izsak           : Overlap fitted RIJCOSX, COSX-SCS-MP3
   Christian Kollmar      : KDIIS, OOCD, Brueckner-CCSD(T), CCSD density
   Simone Kossmann        : Meta GGA functionals, TD-DFT gradient, OOMP2, MP2 Hessian
   Taras Petrenko         : DFT Hessian,TD-DFT gradient, ASA and ECA modules, normal mode analysis, Resonance Raman, ABS, FL, XAS/XES, NRVS
   Christoph Reimann      : Effective Core Potentials
   Michael Roemelt        : Restricted open shell CIS
   Christoph Riplinger    : Improved optimizer, TS searches, QM/MM, DLPNO-CCSD
   Barbara Sandhoefer     : DKH picture change effects
   Igor Schapiro          : Molecular dynamics
   Kantharuban Sivalingam : CASSCF convergence, NEVPT2
   Boris Wezisla          : Elementary symmetry handling
   Frank Wennmohs         : Technical directorship


 We gratefully acknowledge several colleagues who have allowed us to
 interface, adapt or use parts of their codes:
   Stefan Grimme, W. Hujo, H. Kruse, T. Risthaus : VdW corrections, initial TS optimization,
                                                   DFT functionals, gCP
   Ed Valeev                                     : LibInt (2-el integral package), F12 methods
   Garnet Chan, S. Sharma, R. Olivares           : DMRG
   Ulf Ekstrom                                   : XCFun DFT Library
   Mihaly Kallay                                 : mrcc  (arbitrary order and MRCC methods)
   Andreas Klamt, Michael Diedenhofen            : otool_cosmo (COSMO solvation model)
   Frank Weinhold                                : gennbo (NPA and NBO analysis)
   Christopher J. Cramer and Donald G. Truhlar   : smd solvation model


 Your calculation uses the libint2 library for the computation of 2-el integrals
 For citations please refer to: http://libint.valeyev.net

 This ORCA versions uses:
   CBLAS   interface :  Fast vector & matrix operations
   LAPACKE interface :  Fast linear algebra routines
   SCALAPACK package :  Parallel linear algebra routines


Your calculation utilizes the basis: Ahlrichs-TZV
Cite in your paper:
H - Kr: A. Schaefer, H. Horn and R. Ahlrichs, J. Chem. Phys. 97, 2571 (1992).

The def2-TZV basis will be loaded
Cite in your paper:
 	F. Weigend, R. Ahlrichs, Phys. Chem. Chem. Phys. 2005, 7, 3297.

================================================================================
                                        WARNINGS
                       Please study these warnings very carefully!
================================================================================
Now building the actual basis set
WARNING: Geometry optimizations can change the point-group symmetry!

WARNING: Geometry Optimization
  ===> : Switching off AutoStart
         For restart on a previous wavefunction, please use MOREAD


INFO   : the flag for use of LIBINT has been found!

================================================================================
                                       INPUT FILE
================================================================================
NAME = 2474_+.inp
|  1> ! NORI PBE0 def2-TZVP UseSym TightOPT Freq TightSCF Grid3 FinalGrid5 XYZFile
|  2> % pal
|  3>     nprocs 8
|  4> end
|  5> %method
|  6>     SymThresh 5.0e-2
|  7> end
|  8> % geom 
|  9>     MaxIter 10
| 10> end 
| 11> % maxcore 2000
| 12> % output
| 13>     printlevel mini
| 14>     print[ P_Basis ] 0
| 15>     print[ P_SCFInfo ] 1
| 16>     print[ P_SCFIterInfo ] 1
| 17>     print[ P_OrbEn ] 0
| 18>     print[ P_Cartesian ] 0
| 19> end
| 20> % elprop
| 21>     Dipole false
| 22> end
| 23> *xyz 1 1
| 24>  C        0.9820366840     0.0840430047     0.0658946304 
| 25>  C        2.4799569732     0.1178191521    -0.1521332037 
| 26>  N        3.1639818488    -0.0344857818     1.1938965140 
| 27>  C        2.9974335758    -0.9964146489    -1.0323338187 
| 28>  C        3.4645490463    -0.7618167002    -2.2583340134 
| 29>  C        2.9241258313    -2.2906040140    -0.4427869451 
| 30>  C        2.8607389516    -3.3315827118     0.1594834290 
| 31>  H        0.4835231048     0.2183102993    -0.8937680544 
| 32>  H        0.6530959610     0.8888814171     0.7284046415 
| 33>  H        0.6627139769    -0.8765453939     0.4764385015 
| 34>  H        2.8001915629     1.0827875033    -0.5475351832 
| 35>  H        3.0509787932    -1.0134103754     1.4936583653 
| 36>  H        2.7590287879     0.5816888696     1.8997746319 
| 37>  H        4.1664325102     0.1516753983     1.1280979651 
| 38>  H        3.7920405659    -1.5720097504    -2.8970301750 
| 39>  H        3.5145333245     0.2447082066    -2.6578732113 
| 40>  H        2.8050485014    -4.2850944746     0.6366959260 
| 41> *
| 42> 
| 43>                          ****END OF INPUT****
================================================================================

The point group is C1 - hence turning off symmetry
If this is a round-off problem, please increase the symmetry
        detection tolerance (%method SymThresh)


                       *****************************
                       * Geometry Optimization Run *
                       *****************************

Geometry optimization settings:
Update method            Update   .... BFGS
Choice of coordinates    CoordSys .... Redundant Internals
Initial Hessian          InHess   .... Almoef's Model

Convergence Tolerances:
Energy Change            TolE     ....  1.0000e-06 Eh
Max. Gradient            TolMAXG  ....  1.0000e-04 Eh/bohr
RMS Gradient             TolRMSG  ....  3.0000e-05 Eh/bohr
Max. Displacement        TolMAXD  ....  1.0000e-03 bohr
RMS Displacement         TolRMSD  ....  6.0000e-04 bohr

------------------------------------------------------------------------------
                        ORCA OPTIMIZATION COORDINATE SETUP
------------------------------------------------------------------------------

The optimization will be done in new redundant internal coordinates
Making redundant internal coordinates   ...  (new redundants) done
Evaluating the initial hessian          ...  (Almloef) done
Evaluating the coordinates              ...  done
Calculating the B-matrix                .... done
Calculating the G-matrix                .... done
Diagonalizing the G-matrix              .... done
Small eigenvalue found = 2.320e-02
The first mode is                       ....   27
The number of degrees of freedom        ....   44

    -----------------------------------------------------------------
                    Redundant Internal Coordinates


    -----------------------------------------------------------------
         Definition                    Initial Value    Approx d2E/dq
    -----------------------------------------------------------------
      1. B(C   1,C   0)                  1.5141         0.396073   
      2. B(N   2,C   1)                  1.5175         0.350281   
      3. B(C   3,C   1)                  1.5113         0.400128   
      4. B(C   4,C   3)                  1.3328         0.770948   
      5. B(C   5,C   3)                  1.4240         0.551370   
      6. B(C   6,C   5)                  1.2043         1.235893   
      7. B(H   7,C   0)                  1.0897         0.360467   
      8. B(H   8,C   0)                  1.0931         0.356011   
      9. B(H   9,C   0)                  1.0924         0.356996   
     10. B(H  10,C   1)                  1.0909         0.358915   
     11. B(H  11,N   2)                  1.0300         0.402041   
     12. B(H  12,N   2)                  1.0207         0.415959   
     13. B(H  13,N   2)                  1.0217         0.414487   
     14. B(H  14,C   4)                  1.0824         0.370291   
     15. B(H  15,C   4)                  1.0841         0.368022   
     16. B(H  16,C   6)                  1.0677         0.390819   
     17. A(C   1,C   0,H   7)          108.8459         0.327509   
     18. A(C   1,C   0,H   8)          111.6269         0.326839   
     19. A(C   1,C   0,H   9)          111.2809         0.326987   
     20. A(H   8,C   0,H   9)          109.3730         0.289924   
     21. A(H   7,C   0,H   8)          107.7799         0.290365   
     22. A(H   7,C   0,H   9)          107.7941         0.290491   
     23. A(N   2,C   1,C   3)          106.7537         0.361358   
     24. A(C   0,C   1,N   2)          108.4196         0.360731   
     25. A(N   2,C   1,H  10)          106.1382         0.318835   
     26. A(C   0,C   1,C   3)          113.9644         0.371361   
     27. A(C   3,C   1,H  10)          109.9102         0.327826   
     28. A(C   0,C   1,H  10)          111.2443         0.327276   
     29. A(H  12,N   2,H  13)          108.8923         0.299294   
     30. A(H  11,N   2,H  13)          107.4308         0.297680   
     31. A(C   1,N   2,H  13)          111.5211         0.323680   
     32. A(H  11,N   2,H  12)          109.2040         0.297847   
     33. A(C   1,N   2,H  12)          111.9609         0.323868   
     34. A(C   1,N   2,H  11)          107.7024         0.322066   
     35. A(C   4,C   3,C   5)          123.9758         0.442012   
     36. A(C   1,C   3,C   5)          114.2864         0.393315   
     37. A(C   1,C   3,C   4)          121.7342         0.417302   
     38. A(H  14,C   4,H  15)          117.6160         0.293121   
     39. A(C   3,C   4,H  15)          121.2393         0.367620   
     40. A(C   3,C   4,H  14)          121.1368         0.368008   
     41. A(C   3,C   5,C   6)          174.4460         0.481807   
     42. L(C   5,C   6,H  16, 2)       183.5309         0.403275   
     43. L(C   5,C   6,H  16, 1)       179.0583         0.403275   
     44. D(N   2,C   1,C   0,H   9)    -62.7691         0.012456   
     45. D(N   2,C   1,C   0,H   8)     59.7360         0.012456   
     46. D(C   3,C   1,C   0,H   7)    -62.7017         0.012456   
     47. D(H  10,C   1,C   0,H   8)    -56.6103         0.012456   
     48. D(H  10,C   1,C   0,H   7)     62.2330         0.012456   
     49. D(N   2,C   1,C   0,H   7)    178.5793         0.012456   
     50. D(C   3,C   1,C   0,H   8)    178.4549         0.012456   
     51. D(H  10,C   1,C   0,H   9)   -179.1154         0.012456   
     52. D(C   3,C   1,C   0,H   9)     55.9499         0.012456   
     53. D(H  12,N   2,C   1,C   3)   -170.4809         0.011309   
     54. D(H  12,N   2,C   1,C   0)    -47.2965         0.011309   
     55. D(H  11,N   2,C   1,H  10)   -167.6301         0.011309   
     56. D(H  11,N   2,C   1,C   3)    -50.4145         0.011309   
     57. D(H  12,N   2,C   1,H  10)     72.3036         0.011309   
     58. D(H  11,N   2,C   1,C   0)     72.7698         0.011309   
     59. D(H  13,N   2,C   1,H  10)    -49.9926         0.011309   
     60. D(H  13,N   2,C   1,C   3)     67.2229         0.011309   
     61. D(H  13,N   2,C   1,C   0)   -169.5928         0.011309   
     62. D(C   5,C   3,C   1,H  10)    165.3120         0.011881   
     63. D(C   5,C   3,C   1,N   2)     50.6185         0.011881   
     64. D(C   5,C   3,C   1,C   0)    -69.0456         0.011881   
     65. D(C   4,C   3,C   1,H  10)    -15.3533         0.011881   
     66. D(C   4,C   3,C   1,N   2)   -130.0468         0.011881   
     67. D(C   4,C   3,C   1,C   0)    110.2891         0.011881   
     68. D(H  15,C   4,C   3,C   5)   -179.0396         0.042619   
     69. D(H  15,C   4,C   3,C   1)      1.6917         0.042619   
     70. D(H  14,C   4,C   3,C   5)      2.0083         0.042619   
     71. D(H  14,C   4,C   3,C   1)   -177.2604         0.042619   
    -----------------------------------------------------------------

Number of atoms                         .... 17
Number of degrees of freedom            .... 71

         *************************************************************
         *                GEOMETRY OPTIMIZATION CYCLE   1            *
         *************************************************************


           ************************************************************
           *        Program running with 8 parallel MPI-processes     *
           *              working on a common directory               *
           ************************************************************
           ************************************************************
           *              Shut down parallel processing               *
           ************************************************************


           ************************************************************
           *        Program running with 8 parallel MPI-processes     *
           *              working on a common directory               *
           ************************************************************
------------
SCF SETTINGS
------------
Hamiltonian:
 Density Functional     Method          .... DFT(GTOs)
 Exchange Functional    Exchange        .... PBE
   PBE kappa parameter  XKappa          ....  0.804000
 Correlation Functional Correlation     .... PBE
 LDA part of GGA corr.  LDAOpt          .... PW91-LDA
 Gradients option       PostSCFGGA      .... off
 Hybrid DFT is turned on
   Fraction HF Exchange ScalHFX         ....  0.250000
   Scaling of DF-GGA-X  ScalDFX         ....  0.750000
   Scaling of DF-GGA-C  ScalDFC         ....  1.000000
   Scaling of DF-LDA-C  ScalLDAC        ....  1.000000
   Perturbative correction              ....  0.000000
   NL short-range parameter             ....  6.900000


General Settings:
 Integral files         IntName         .... 2474_+
 Hartree-Fock type      HFTyp           .... RHF
 Total Charge           Charge          ....    1
 Multiplicity           Mult            ....    1
 Number of Electrons    NEL             ....   52
 Basis Dimension        Dim             ....  277
 Nuclear Repulsion      ENuc            ....    289.8609510942 Eh

Convergence Acceleration:
 DIIS                   CNVDIIS         .... on
   Start iteration      DIISMaxIt       ....    12
   Startup error        DIISStart       ....  0.200000
   # of expansion vecs  DIISMaxEq       ....     5
   Bias factor          DIISBfac        ....   1.050
   Max. coefficient     DIISMaxC        ....  10.000
 Newton-Raphson         CNVNR           .... off
 SOSCF                  CNVSOSCF        .... on
   Start iteration      SOSCFMaxIt      ....   150
   Startup grad/error   SOSCFStart      ....  0.003300
 Level Shifting         CNVShift        .... on
   Level shift para.    LevelShift      ....    0.2500
   Turn off err/grad.   ShiftErr        ....    0.0010
 Zerner damping         CNVZerner       .... off
 Static damping         CNVDamp         .... on
   Fraction old density DampFac         ....    0.7000
   Max. Damping (<1)    DampMax         ....    0.9800
   Min. Damping (>=0)   DampMin         ....    0.0000
   Turn off err/grad.   DampErr         ....    0.1000
 Fernandez-Rico         CNVRico         .... off

SCF Procedure:
 Maximum # iterations   MaxIter         ....   125
 SCF integral mode      SCFMode         .... Direct
   Integral package                     .... LIBINT
 Reset frequeny         DirectResetFreq ....    20
 Integral Threshold     Thresh          ....  2.500e-11 Eh
 Primitive CutOff       TCut            ....  2.500e-12 Eh

Convergence Tolerance:
 Convergence Check Mode ConvCheckMode   .... Total+1el-Energy
 Energy Change          TolE            ....  1.000e-08 Eh
 1-El. energy change                    ....  1.000e-05 Eh
 Orbital Gradient       TolG            ....  1.000e-05
 Orbital Rotation angle TolX            ....  1.000e-05
 DIIS Error             TolErr          ....  5.000e-07


Diagonalization of the overlap matrix:
Smallest eigenvalue                        ... 1.773e-05
Time for diagonalization                   ...    0.234 sec
Threshold for overlap eigenvalues          ... 1.000e-08
Number of eigenvalues below threshold      ... 0
Time for construction of square roots      ...    0.019 sec
Total time needed                          ...    0.254 sec

-------------------
DFT GRID GENERATION
-------------------

General Integration Accuracy     IntAcc      ...  4.340
Radial Grid Type                 RadialGrid  ... Gauss-Chebyshev
Angular Grid (max. acc.)         AngularGrid ... Lebedev-194
Angular grid pruning method      GridPruning ... 3 (G Style)
Weight generation scheme         WeightScheme... Becke
Basis function cutoff            BFCut       ...    1.0000e-11
Integration weight cutoff        WCut        ...    1.0000e-14
Grids for H and He will be reduced by one unit

# of grid points (after initial pruning)     ...  38278 (   0.0 sec)
# of grid points (after weights+screening)   ...  35175 (   0.1 sec)
nearest neighbour list constructed           ...    0.0 sec
Grid point re-assignment to atoms done       ...    0.0 sec
Grid point division into batches done        ...    0.1 sec
Reduced shell lists constructed in    0.1 sec

Total number of grid points                  ...    35175
Total number of batches                      ...      558
Average number of points per batch           ...       63
Average number of grid points per atom       ...     2069
Average number of shells per batch           ...    96.24 (82.26%)
Average number of basis functions per batch  ...   238.07 (85.95%)
Average number of large shells per batch     ...    80.46 (83.61%)
Average number of large basis fcns per batch ...   196.58 (82.57%)
Maximum spatial batch extension              ...   2.04,  2.31,  2.30 au
Average spatial batch extension              ...   0.14,  0.14,  0.14 au

Time for grid setup =    0.506 sec

Loading Hartree-Fock densities                     ... done
Calculating cut-offs                               ... done
Setting up the integral package                    ... done
Initializing the effective Hamiltonian             ... done
Starting the Coulomb interaction                   ... done (   0.0 sec)
Reading the grid                                   ... done
Mapping shells                                     ... done
Starting the XC term evaluation                    ... done (   0.4 sec)
  promolecular density results
     # of electrons  =     52.997137059
     EX              =    -40.152980913
     EC              =     -1.717718355
     EX+EC           =    -41.870699267
Transforming the Hamiltonian                       ... done (   0.0 sec)
Diagonalizing the Hamiltonian                      ... done (   0.3 sec)
Back transforming the eigenvectors                 ... done (   0.0 sec)
Now organizing SCF variables                       ... done
--------------
SCF ITERATIONS
--------------
ITER       Energy         Delta-E        Max-DP      RMS-DP      [F,P]     Damp
               ***  Starting incremental Fock matrix formation  ***
  0   -288.6627447419   0.000000000000 0.09738716  0.00130750  0.1641388 0.7000
  1   -288.7371292691  -0.074384527196 0.10102001  0.00110742  0.0883366 0.7000
                               ***Turning on DIIS***
  2   -288.7723522501  -0.035222980981 0.20593344  0.00223614  0.0364892 0.0000
  3   -288.8230009005  -0.050648650458 0.06253264  0.00070850  0.0454556 0.0000
  4   -288.8347152964  -0.011714395872 0.02421005  0.00024497  0.0079983 0.0000
                      *** Initiating the SOSCF procedure ***
                           *** Shutting down DIIS ***
                      *** Re-Reading the Fockian *** 
                      *** Removing any level shift *** 
ITER      Energy       Delta-E        Grad      Rot      Max-DP    RMS-DP
  5   -288.83513710  -0.0004218016  0.000511  0.000511  0.005539  0.000080
               *** Restarting incremental Fock matrix formation ***
  6   -288.83517304  -0.0000359428  0.000169  0.000563  0.001659  0.000046
  7   -288.83517452  -0.0000014755  0.000264  0.000620  0.000414  0.000011
  8   -288.83517576  -0.0000012461  0.000137  0.000329  0.000410  0.000010
  9   -288.83517579  -0.0000000290  0.000110  0.000115  0.000102  0.000003
 10   -288.83517598  -0.0000001850  0.000040  0.000105  0.000131  0.000003
 11   -288.83517597   0.0000000069  0.000042  0.000050  0.000080  0.000001
 12   -288.83517600  -0.0000000263  0.000005  0.000008  0.000021  0.000001
 13   -288.83517599   0.0000000008  0.000006  0.000004  0.000007  0.000000
                  ***Gradient check signals convergence***
              ***Rediagonalizing the Fockian in SOSCF/NRSCF***

               *****************************************************
               *                     SUCCESS                       *
               *           SCF CONVERGED AFTER  14 CYCLES          *
               *****************************************************

Setting up the final grid:

General Integration Accuracy     IntAcc      ...  5.010
Radial Grid Type                 RadialGrid  ... Gauss-Chebyshev
Angular Grid (max. acc.)         AngularGrid ... Lebedev-434
Angular grid pruning method      GridPruning ... 3 (G Style)
Weight generation scheme         WeightScheme... Becke
Basis function cutoff            BFCut       ...    1.0000e-11
Integration weight cutoff        WCut        ...    1.0000e-14
Grids for H and He will be reduced by one unit

# of grid points (after initial pruning)     ... 141698 (   0.0 sec)
# of grid points (after weights+screening)   ... 128727 (   1.2 sec)
nearest neighbour list constructed           ...    0.0 sec
Grid point re-assignment to atoms done       ...    0.0 sec
Grid point division into batches done        ...    1.0 sec
Reduced shell lists constructed in    1.3 sec

Total number of grid points                  ...   128727
Total number of batches                      ...     2022
Average number of points per batch           ...       63
Average number of grid points per atom       ...     7572
Average number of shells per batch           ...    94.94 (81.15%)
Average number of basis functions per batch  ...   234.40 (84.62%)
Average number of large shells per batch     ...    78.28 (82.44%)
Average number of large basis fcns per batch ...   190.79 (81.39%)
Maximum spatial batch extension              ...   1.98,  1.98,  2.72 au
Average spatial batch extension              ...   0.09,  0.09,  0.10 au

Final grid set up in    2.6 sec
Final integration                            ... done (   0.9 sec)
Change in XC energy                          ...     0.000381325
Integrated number of electrons               ...    51.999986416
Previous integrated no of electrons          ...    52.000464485
Total Energy       :         -288.83479467 Eh           -7859.59434 eV
  Last Energy change         ...   -8.5345e-10  Tolerance :   1.0000e-08
  Last MAX-Density change    ...    5.3701e-06  Tolerance :   1.0000e-07
             **** THE GBW FILE WAS UPDATED (2474_+.gbw) ****
             **** DENSITY FILE WAS UPDATED (2474_+.scfp.tmp) ****
             **** ENERGY FILE WAS UPDATED (2474_+.en.tmp) ****
Total SCF time: 0 days 0 hours 1 min 37 sec 
           ************************************************************
           *              Shut down parallel processing               *
           ************************************************************

-------------------------   --------------------
FINAL SINGLE POINT ENERGY      -288.834794670628
-------------------------   --------------------



           ************************************************************
           *        Program running with 8 parallel MPI-processes     *
           *              working on a common directory               *
           ************************************************************
------------------------------------------------------------------------------
                         ORCA SCF GRADIENT CALCULATION
------------------------------------------------------------------------------

Gradient of the Kohn-Sham DFT energy:
Kohn-Sham wavefunction type      ... RKS
Hartree-Fock exchange scaling    ...    0.250
Number of operators              ...    1
Number of atoms                  ...   17
Basis set dimensions             ...  277
Integral neglect threshold       ... 2.5e-11
Integral primitive cutoff        ... 2.5e-12

Nuclear repulsion gradient       ... done
One Electron Gradient            ... done
Pre-screening matrix             ... done
Starting the two electron gradient:
Two electron gradient done
Exchange-correlation gradient    ... done

------------------
CARTESIAN GRADIENT
------------------

   1   C   :    0.000054640   -0.000002471   -0.000150588
   2   C   :    0.000087349   -0.000011050    0.000073438
   3   N   :    0.000036180    0.000049613    0.000074476
   4   C   :   -0.000008889   -0.000082564   -0.000065129
   5   C   :    0.000040527    0.000107804    0.000113332
   6   C   :   -0.000009453   -0.000135869   -0.000024839
   7   C   :   -0.000070285    0.000203979    0.000001732
   8   H   :   -0.000076604    0.000070418    0.000058389
   9   H   :   -0.000004761    0.000008768    0.000077393
  10   H   :   -0.000017603   -0.000090481    0.000024762
  11   H   :   -0.000025198    0.000038234   -0.000026338
  12   H   :    0.000016320   -0.000038983   -0.000041012
  13   H   :   -0.000040780   -0.000018748   -0.000096650
  14   H   :   -0.000000041   -0.000026260    0.000000671
  15   H   :    0.000011506    0.000005067   -0.000026762
  16   H   :   -0.000022701   -0.000033112    0.000003301
  17   H   :    0.000029792   -0.000044346    0.000003825

Norm of the cartesian gradient     ...    0.000451884
RMS gradient                       ...    0.000063276
MAX gradient                       ...    0.000203979

-------
TIMINGS
-------

Total SCF gradient time            ...       33.890 sec

One electron gradient       ....       0.171 sec  (  0.5%)
Prescreening matrices       ....       0.515 sec  (  1.5%)
Two electron gradient       ....      27.633 sec  ( 81.5%)
XC gradient                 ....       3.531 sec  ( 10.4%)
           ************************************************************
           *              Shut down parallel processing               *
           ************************************************************
------------------------------------------------------------------------------
                         ORCA GEOMETRY RELAXATION STEP
------------------------------------------------------------------------------

Reading the OPT-File                    .... done
Getting information on internals        .... done
Copying old internal coords+grads       .... done
Making the new internal coordinates     .... (new redundants).... done
Validating the new internal coordinates .... (new redundants).... done
Calculating the B-matrix                .... done
Calculating the G,G- and P matrices     .... done
Transforming gradient to internals      .... done
Projecting the internal gradient        .... done
Number of atoms                         ....  17
Number of internal coordinates          ....  71
Current Energy                          ....  -288.834794671 Eh
Current gradient norm                   ....     0.000451884 Eh/bohr
Maximum allowed component of the step   ....  0.300
Current trust radius                    ....  0.300
Evaluating the initial hessian          ....  (Almloef) done
Projecting the Hessian                  .... done
Forming the augmented Hessian           .... done
Diagonalizing the augmented Hessian     .... done
Last element of RFO vector              ....  0.999997575
Lowest eigenvalues of augmented Hessian:
 -0.000000364  0.011309490  0.011881453  0.012455756  0.025599689
Length of the computed step             ....  0.002202243
The final length of the internal step   ....  0.002202243
Converting the step to cartesian space:
 Initial RMS(Int)=    0.0002613581
Transforming coordinates:
 Iter   0:  RMS(Cart)=    0.0003959711 RMS(Int)=    0.0002613638
 Iter   1:  RMS(Cart)=    0.0000011041 RMS(Int)=    0.0000006563
 Iter   2:  RMS(Cart)=    0.0000006084 RMS(Int)=    0.0000003227
 Iter   3:  RMS(Cart)=    0.0000002954 RMS(Int)=    0.0000001578
 Iter   4:  RMS(Cart)=    0.0000001436 RMS(Int)=    0.0000000774
 Iter   5:  RMS(Cart)=    0.0000000699 RMS(Int)=    0.0000000380
done
Storing new coordinates                 .... done

                                .--------------------.
          ----------------------|Geometry convergence|---------------------
          Item                value                 Tolerance   Converged
          -----------------------------------------------------------------
          RMS gradient        0.00004103            0.00003000      NO
          MAX gradient        0.00016532            0.00010000      NO
          RMS step            0.00026136            0.00060000      YES
          MAX step            0.00082959            0.00100000      YES
          ....................................................
          Max(Bonds)      0.0002      Max(Angles)    0.02
          Max(Dihed)        0.05      Max(Improp)    0.00
          -----------------------------------------------------------------

The optimization has not yet converged - more geometry cycles are needed


    ---------------------------------------------------------------------------
                         Redundant Internal Coordinates
                            (Angstroem and degrees)

        Definition                    Value    dE/dq     Step     New-Value
    ----------------------------------------------------------------------------
     1. B(C   1,C   0)                1.5141 -0.000046  0.0001    1.5141   
     2. B(N   2,C   1)                1.5175 -0.000070  0.0001    1.5176   
     3. B(C   3,C   1)                1.5113  0.000023 -0.0000    1.5113   
     4. B(C   4,C   3)                1.3328 -0.000123  0.0001    1.3329   
     5. B(C   5,C   3)                1.4240  0.000043 -0.0000    1.4240   
     6. B(C   6,C   5)                1.2043  0.000165 -0.0001    1.2042   
     7. B(H   7,C   0)                1.0897 -0.000109  0.0002    1.0899   
     8. B(H   8,C   0)                1.0931  0.000059 -0.0001    1.0930   
     9. B(H   9,C   0)                1.0924 -0.000094  0.0001    1.0925   
    10. B(H  10,C   1)                1.0909 -0.000045  0.0001    1.0910   
    11. B(H  11,N   2)                1.0300 -0.000028  0.0000    1.0300   
    12. B(H  12,N   2)                1.0207 -0.000101  0.0001    1.0209   
    13. B(H  13,N   2)                1.0217  0.000012 -0.0000    1.0217   
    14. B(H  14,C   4)                1.0824  0.000015 -0.0000    1.0824   
    15. B(H  15,C   4)                1.0841  0.000022 -0.0000    1.0840   
    16. B(H  16,C   6)                1.0677 -0.000051  0.0001    1.0678   
    17. A(C   1,C   0,H   7)          108.85  0.000001   -0.00    108.84   
    18. A(C   1,C   0,H   8)          111.63 -0.000042    0.01    111.63   
    19. A(C   1,C   0,H   9)          111.28 -0.000033    0.01    111.29   
    20. A(H   8,C   0,H   9)          109.37  0.000024    0.00    109.37   
    21. A(H   7,C   0,H   8)          107.78  0.000046   -0.02    107.76   
    22. A(H   7,C   0,H   9)          107.79  0.000007    0.00    107.79   
    23. A(N   2,C   1,C   3)          106.75 -0.000021    0.01    106.76   
    24. A(C   0,C   1,N   2)          108.42 -0.000014    0.00    108.42   
    25. A(N   2,C   1,H  10)          106.14  0.000016   -0.00    106.13   
    26. A(C   0,C   1,C   3)          113.96  0.000025   -0.00    113.96   
    27. A(C   3,C   1,H  10)          109.91 -0.000011    0.00    109.91   
    28. A(C   0,C   1,H  10)          111.24  0.000004   -0.01    111.24   
    29. A(H  12,N   2,H  13)          108.89  0.000021   -0.00    108.89   
    30. A(H  11,N   2,H  13)          107.43  0.000033   -0.01    107.42   
    31. A(C   1,N   2,H  13)          111.52 -0.000003    0.00    111.52   
    32. A(H  11,N   2,H  12)          109.20  0.000042   -0.01    109.20   
    33. A(C   1,N   2,H  12)          111.96 -0.000030    0.01    111.97   
    34. A(C   1,N   2,H  11)          107.70 -0.000061    0.01    107.71   
    35. A(C   4,C   3,C   5)          123.98 -0.000026    0.00    123.98   
    36. A(C   1,C   3,C   5)          114.29  0.000042   -0.01    114.28   
    37. A(C   1,C   3,C   4)          121.73 -0.000016    0.00    121.74   
    38. A(H  14,C   4,H  15)          117.62 -0.000014    0.00    117.62   
    39. A(C   3,C   4,H  15)          121.24  0.000030   -0.00    121.23   
    40. A(C   3,C   4,H  14)          121.14 -0.000016    0.00    121.14   
    41. A(C   3,C   5,C   6)          174.45 -0.000038    0.00    174.45   
    42. L(C   5,C   6,H  16, 2)       183.53 -0.000001    0.00    183.53   
    43. L(C   5,C   6,H  16, 1)       179.06  0.000005   -0.00    179.06   
    44. D(N   2,C   1,C   0,H   9)    -62.77  0.000017   -0.02    -62.78   
    45. D(N   2,C   1,C   0,H   8)     59.74 -0.000005   -0.00     59.73   
    46. D(C   3,C   1,C   0,H   7)    -62.70  0.000006   -0.01    -62.71   
    47. D(H  10,C   1,C   0,H   8)    -56.61 -0.000018    0.00    -56.61   
    48. D(H  10,C   1,C   0,H   7)     62.23  0.000014   -0.01     62.22   
    49. D(N   2,C   1,C   0,H   7)    178.58  0.000027   -0.02    178.56   
    50. D(C   3,C   1,C   0,H   8)    178.45 -0.000026    0.01    178.46   
    51. D(H  10,C   1,C   0,H   9)   -179.12  0.000004   -0.01   -179.12   
    52. D(C   3,C   1,C   0,H   9)     55.95 -0.000004   -0.00     55.95   
    53. D(H  12,N   2,C   1,C   3)   -170.48  0.000000   -0.03   -170.51   
    54. D(H  12,N   2,C   1,C   0)    -47.30  0.000009   -0.02    -47.32   
    55. D(H  11,N   2,C   1,H  10)   -167.63  0.000010   -0.03   -167.66   
    56. D(H  11,N   2,C   1,C   3)    -50.41 -0.000005   -0.02    -50.44   
    57. D(H  12,N   2,C   1,H  10)     72.30  0.000015   -0.03     72.27   
    58. D(H  11,N   2,C   1,C   0)     72.77  0.000004   -0.02     72.75   
    59. D(H  13,N   2,C   1,H  10)    -49.99  0.000011   -0.03    -50.02   
    60. D(H  13,N   2,C   1,C   3)     67.22 -0.000004   -0.02     67.20   
    61. D(H  13,N   2,C   1,C   0)   -169.59  0.000005   -0.02   -169.62   
    62. D(C   5,C   3,C   1,H  10)    165.31 -0.000010    0.01    165.33   
    63. D(C   5,C   3,C   1,N   2)     50.62 -0.000012    0.01     50.63   
    64. D(C   5,C   3,C   1,C   0)    -69.05  0.000005    0.01    -69.04   
    65. D(C   4,C   3,C   1,H  10)    -15.35  0.000002   -0.01    -15.37   
    66. D(C   4,C   3,C   1,N   2)   -130.05  0.000000   -0.01   -130.06   
    67. D(C   4,C   3,C   1,C   0)    110.29  0.000018   -0.02    110.27   
    68. D(H  15,C   4,C   3,C   5)   -179.04  0.000031   -0.05   -179.09   
    69. D(H  15,C   4,C   3,C   1)      1.69  0.000017   -0.02      1.68   
    70. D(H  14,C   4,C   3,C   5)      2.01  0.000030   -0.05      1.96   
    71. D(H  14,C   4,C   3,C   1)   -177.26  0.000016   -0.02   -177.28   
    ----------------------------------------------------------------------------

         *************************************************************
         *                GEOMETRY OPTIMIZATION CYCLE   2            *
         *************************************************************
---------------------------------
CARTESIAN COORDINATES (ANGSTROEM)
---------------------------------
  C      1.988400    0.000005    0.361896
  C      0.643103   -0.652960    0.599467
  N     -0.000070    0.000030    1.809070
  C     -0.327044   -0.495008   -0.548500
  C     -0.684751   -1.527826   -1.311303
  C     -0.796701    0.835684   -0.739362
  C     -1.166984    1.980516   -0.789008
  H      2.467824   -0.481505   -0.490245
  H      2.649599   -0.113891    1.224763
  H      1.878305    1.061316    0.127278
  H      0.754963   -1.709151    0.848766
  H     -0.307618    0.942622    1.529911
  H      0.650210    0.077314    2.592235
  H     -0.828184   -0.513528    2.116230
  H     -1.346272   -1.395861   -2.157780
  H     -0.310726   -2.526519   -1.116700
  H     -1.510549    2.985955   -0.894934

----------------------------
CARTESIAN COORDINATES (A.U.)
----------------------------
  NO LB      ZA    FRAG    MASS        X           Y           Z
   0 C     6.0000    0    12.011          3.757532210770015          0.000009892460425          0.683884773155460
   1 C     6.0000    0    12.011          1.215287650080632         -1.233914701499650          1.132828314462903
   2 N     7.0000    0    14.007         -0.000132249567509          0.000055780216846          3.418646413130028
   3 C     6.0000    0    12.011         -0.618024150083903         -0.935428996408641         -1.036514118024185
   4 C     6.0000    0    12.011         -1.293992141735348         -2.887172146234672         -2.478002626879818
   5 C     6.0000    0    12.011         -1.505547111188444          1.579214489930543         -1.397191237488755
   6 C     6.0000    0    12.011         -2.205280252198873          3.742632798630599         -1.491009066484011
   7 H     1.0000    0     1.008          4.663511575852878         -0.909913471842178         -0.926429584259809
   8 H     1.0000    0     1.008          5.007017138091986         -0.215222013751294          2.314466807772411
   9 H     1.0000    0     1.008          3.549481487828530          2.005597100317073          0.240521190148746
  10 H     1.0000    0     1.008          1.426672574827287         -3.229827516321144          1.603934600777161
  11 H     1.0000    0     1.008         -0.581313360195181          1.781297992712890          2.891112107505200
  12 H     1.0000    0     1.008          1.228719588866090          0.146102340730336          4.898614441888824
  13 H     1.0000    0     1.008         -1.565041075508972         -0.970426935134403          3.999095375731478
  14 H     1.0000    0     1.008         -2.544086255127414         -2.637794492945496         -4.077613617131528
  15 H     1.0000    0     1.008         -0.587186227104360         -4.774429554116209         -2.110257985266845
  16 H     1.0000    0     1.008         -2.854524368435026          5.642637566489492         -1.691180896728986

--------------------------------
INTERNAL COORDINATES (ANGSTROEM)
--------------------------------
 C      0   0   0   0.000000     0.000     0.000
 C      1   0   0   1.514143     0.000     0.000
 N      2   1   0   1.517631   108.424     0.000
 C      2   1   3   1.511278   113.960   118.730
 C      4   2   1   1.332867   121.736   110.266
 C      4   2   1   1.423990   114.280   290.960
 C      6   4   2   1.204248   174.451   337.122
 H      1   2   3   1.089883   108.844   178.559
 H      1   2   3   1.093021   111.634    59.733
 H      1   2   3   1.092496   111.290   297.215
 H      2   1   3   1.090964   111.239   243.660
 H      3   2   1   1.030047   107.714    72.748
 H      3   2   1   1.020875   111.967   312.679
 H      3   2   1   1.021695   111.521   190.385
 H      5   4   2   1.082381   121.139   182.724
 H      5   4   2   1.084045   121.234     1.675
 H      7   6   4   1.067785   176.539   179.993

---------------------------
INTERNAL COORDINATES (A.U.)
---------------------------
 C      0   0   0   0.000000     0.000     0.000
 C      1   0   0   2.861316     0.000     0.000
 N      2   1   0   2.867907   108.424     0.000
 C      2   1   3   2.855901   113.960   118.730
 C      4   2   1   2.518754   121.736   110.266
 C      4   2   1   2.690951   114.280   290.960
 C      6   4   2   2.275699   174.451   337.122
 H      1   2   3   2.059580   108.844   178.559
 H      1   2   3   2.065511   111.634    59.733
 H      1   2   3   2.064518   111.290   297.215
 H      2   1   3   2.061624   111.239   243.660
 H      3   2   1   1.946507   107.714    72.748
 H      3   2   1   1.929174   111.967   312.679
 H      3   2   1   1.930725   111.521   190.385
 H      5   4   2   2.045405   121.139   182.724
 H      5   4   2   2.048549   121.234     1.675
 H      7   6   4   2.017822   176.539   179.993



           ************************************************************
           *        Program running with 8 parallel MPI-processes     *
           *              working on a common directory               *
           ************************************************************
           ************************************************************
           *              Shut down parallel processing               *
           ************************************************************


           ************************************************************
           *        Program running with 8 parallel MPI-processes     *
           *              working on a common directory               *
           ************************************************************

Diagonalization of the overlap matrix:
Smallest eigenvalue                        ... 1.773e-05
Time for diagonalization                   ...    0.248 sec
Threshold for overlap eigenvalues          ... 1.000e-08
Number of eigenvalues below threshold      ... 0
Time for construction of square roots      ...    0.023 sec
Total time needed                          ...    0.271 sec

-------------------
DFT GRID GENERATION
-------------------

General Integration Accuracy     IntAcc      ...  4.340
Radial Grid Type                 RadialGrid  ... Gauss-Chebyshev
Angular Grid (max. acc.)         AngularGrid ... Lebedev-194
Angular grid pruning method      GridPruning ... 3 (G Style)
Weight generation scheme         WeightScheme... Becke
Basis function cutoff            BFCut       ...    1.0000e-11
Integration weight cutoff        WCut        ...    1.0000e-14
Grids for H and He will be reduced by one unit

# of grid points (after initial pruning)     ...  38278 (   0.0 sec)
# of grid points (after weights+screening)   ...  35175 (   0.1 sec)
nearest neighbour list constructed           ...    0.0 sec
Grid point re-assignment to atoms done       ...    0.0 sec
Grid point division into batches done        ...    0.1 sec
Reduced shell lists constructed in    0.2 sec

Total number of grid points                  ...    35175
Total number of batches                      ...      558
Average number of points per batch           ...       63
Average number of grid points per atom       ...     2069
Average number of shells per batch           ...    96.24 (82.26%)
Average number of basis functions per batch  ...   238.07 (85.95%)
Average number of large shells per batch     ...    80.46 (83.61%)
Average number of large basis fcns per batch ...   196.52 (82.55%)
Maximum spatial batch extension              ...   2.04,  2.31,  2.30 au
Average spatial batch extension              ...   0.14,  0.15,  0.14 au

Time for grid setup =    0.492 sec

--------------
SCF ITERATIONS
--------------
ITER       Energy         Delta-E        Max-DP      RMS-DP      [F,P]     Damp
               ***  Starting incremental Fock matrix formation  ***
                      *** Initiating the SOSCF procedure ***
                      *** Re-Reading the Fockian *** 
                      *** Removing any level shift *** 
ITER      Energy       Delta-E        Grad      Rot      Max-DP    RMS-DP
  0   -288.83517576 -288.8351757609  0.000096  0.000096  0.000232  0.000004
               *** Restarting incremental Fock matrix formation ***
  1   -288.83517592  -0.0000001560  0.000017  0.000042  0.000077  0.000001
  2   -288.83517593  -0.0000000138  0.000009  0.000021  0.000082  0.000001
  3   -288.83517593  -0.0000000017  0.000010  0.000013  0.000042  0.000000
  4   -288.83517593  -0.0000000003  0.000004  0.000008  0.000013  0.000000
  5   -288.83517593   0.0000000006  0.000004  0.000005  0.000015  0.000000
                  ***Gradient check signals convergence***
              ***Rediagonalizing the Fockian in SOSCF/NRSCF***

               *****************************************************
               *                     SUCCESS                       *
               *           SCF CONVERGED AFTER   6 CYCLES          *
               *****************************************************

Setting up the final grid:

General Integration Accuracy     IntAcc      ...  5.010
Radial Grid Type                 RadialGrid  ... Gauss-Chebyshev
Angular Grid (max. acc.)         AngularGrid ... Lebedev-434
Angular grid pruning method      GridPruning ... 3 (G Style)
Weight generation scheme         WeightScheme... Becke
Basis function cutoff            BFCut       ...    1.0000e-11
Integration weight cutoff        WCut        ...    1.0000e-14
Grids for H and He will be reduced by one unit

# of grid points (after initial pruning)     ... 141698 (   0.0 sec)
# of grid points (after weights+screening)   ... 128728 (   0.4 sec)
nearest neighbour list constructed           ...    0.0 sec
Grid point re-assignment to atoms done       ...    0.0 sec
Grid point division into batches done        ...    1.2 sec
Reduced shell lists constructed in    1.4 sec

Total number of grid points                  ...   128728
Total number of batches                      ...     2021
Average number of points per batch           ...       63
Average number of grid points per atom       ...     7572
Average number of shells per batch           ...    94.96 (81.17%)
Average number of basis functions per batch  ...   234.40 (84.62%)
Average number of large shells per batch     ...    78.33 (82.49%)
Average number of large basis fcns per batch ...   191.00 (81.48%)
Maximum spatial batch extension              ...   1.98,  1.98,  2.72 au
Average spatial batch extension              ...   0.10,  0.09,  0.10 au

Final grid set up in    2.4 sec
Final integration                            ... done (   1.1 sec)
Change in XC energy                          ...     0.000381064
Integrated number of electrons               ...    51.999986577
Previous integrated no of electrons          ...    52.000464397
Total Energy       :         -288.83479487 Eh           -7859.59434 eV
  Last Energy change         ...   -1.0396e-09  Tolerance :   1.0000e-08
  Last MAX-Density change    ...    8.6811e-06  Tolerance :   1.0000e-07
             **** THE GBW FILE WAS UPDATED (2474_+.gbw) ****
             **** DENSITY FILE WAS UPDATED (2474_+.scfp.tmp) ****
             **** ENERGY FILE WAS UPDATED (2474_+.en.tmp) ****
Total SCF time: 0 days 0 hours 0 min 43 sec 
           ************************************************************
           *              Shut down parallel processing               *
           ************************************************************

-------------------------   --------------------
FINAL SINGLE POINT ENERGY      -288.834794868678
-------------------------   --------------------



           ************************************************************
           *        Program running with 8 parallel MPI-processes     *
           *              working on a common directory               *
           ************************************************************
------------------------------------------------------------------------------
                         ORCA SCF GRADIENT CALCULATION
------------------------------------------------------------------------------

Gradient of the Kohn-Sham DFT energy:
Kohn-Sham wavefunction type      ... RKS
Hartree-Fock exchange scaling    ...    0.250
Number of operators              ...    1
Number of atoms                  ...   17
Basis set dimensions             ...  277
Integral neglect threshold       ... 2.5e-11
Integral primitive cutoff        ... 2.5e-12

Nuclear repulsion gradient       ... done
One Electron Gradient            ... done
Pre-screening matrix             ... done
Starting the two electron gradient:
Two electron gradient done
Exchange-correlation gradient    ... done

------------------
CARTESIAN GRADIENT
------------------

   1   C   :    0.000047739   -0.000027449   -0.000026867
   2   C   :    0.000031295    0.000013677    0.000041662
   3   N   :   -0.000024622    0.000004561    0.000040039
   4   C   :   -0.000013352   -0.000021248   -0.000007821
   5   C   :    0.000013990    0.000021949    0.000035058
   6   C   :    0.000005527   -0.000011875   -0.000039640
   7   C   :   -0.000010900    0.000012873    0.000015981
   8   H   :   -0.000015472    0.000019246   -0.000009012
   9   H   :   -0.000023409    0.000008850    0.000018600
  10   H   :   -0.000015367    0.000003748    0.000005655
  11   H   :   -0.000016150   -0.000003632   -0.000019564
  12   H   :   -0.000003434    0.000000128   -0.000030860
  13   H   :    0.000014259   -0.000004076   -0.000005919
  14   H   :    0.000008713   -0.000009435    0.000000731
  15   H   :    0.000003464   -0.000004400   -0.000005893
  16   H   :   -0.000009717   -0.000008145   -0.000011253
  17   H   :    0.000007437    0.000005230   -0.000000896

Norm of the cartesian gradient     ...    0.000134873
RMS gradient                       ...    0.000018886
MAX gradient                       ...    0.000047739

-------
TIMINGS
-------

Total SCF gradient time            ...       33.169 sec

One electron gradient       ....       0.110 sec  (  0.3%)
Prescreening matrices       ....       0.335 sec  (  1.0%)
Two electron gradient       ....      26.694 sec  ( 80.5%)
XC gradient                 ....       3.482 sec  ( 10.5%)
           ************************************************************
           *              Shut down parallel processing               *
           ************************************************************
------------------------------------------------------------------------------
                         ORCA GEOMETRY RELAXATION STEP
------------------------------------------------------------------------------

Reading the OPT-File                    .... done
Getting information on internals        .... done
Copying old internal coords+grads       .... done
Making the new internal coordinates     .... (new redundants).... done
Validating the new internal coordinates .... (new redundants).... done
Calculating the B-matrix                .... done
Calculating the G,G- and P matrices     .... done
Transforming gradient to internals      .... done
Projecting the internal gradient        .... done
Number of atoms                         ....  17
Number of internal coordinates          ....  71
Current Energy                          ....  -288.834794869 Eh
Current gradient norm                   ....     0.000134873 Eh/bohr
Maximum allowed component of the step   ....  0.300
Current trust radius                    ....  0.300
Updating the Hessian (BFGS)             .... done
Forming the augmented Hessian           .... done
Diagonalizing the augmented Hessian     .... done
Last element of RFO vector              ....  0.999995927
Lowest eigenvalues of augmented Hessian:
 -0.000000123  0.009514385  0.012040901  0.012424164  0.026898868
Length of the computed step             ....  0.002854145
The final length of the internal step   ....  0.002854145
Converting the step to cartesian space:
 Initial RMS(Int)=    0.0003387247
Transforming coordinates:
 Iter   0:  RMS(Cart)=    0.0006211891 RMS(Int)=    0.0003387432
 Iter   1:  RMS(Cart)=    0.0000059784 RMS(Int)=    0.0000042938
 Iter   2:  RMS(Cart)=    0.0000024782 RMS(Int)=    0.0000022282
 Iter   3:  RMS(Cart)=    0.0000013036 RMS(Int)=    0.0000011716
 Iter   4:  RMS(Cart)=    0.0000006859 RMS(Int)=    0.0000006161
 Iter   5:  RMS(Cart)=    0.0000003608 RMS(Int)=    0.0000003240
 Iter   6:  RMS(Cart)=    0.0000001898 RMS(Int)=    0.0000001703
 Iter   7:  RMS(Cart)=    0.0000000999 RMS(Int)=    0.0000000896
done
Storing new coordinates                 .... done

                                .--------------------.
          ----------------------|Geometry convergence|---------------------
          Item                value                 Tolerance   Converged
          -----------------------------------------------------------------
          Energy change      -0.00000020            0.00000100      YES
          RMS gradient        0.00001183            0.00003000      YES
          MAX gradient        0.00004151            0.00010000      YES
          RMS step            0.00033872            0.00060000      YES
          MAX step            0.00082277            0.00100000      YES
          ....................................................
          Max(Bonds)      0.0001      Max(Angles)    0.02
          Max(Dihed)        0.05      Max(Improp)    0.00
          -----------------------------------------------------------------

                    ***********************HURRAY********************
                    ***        THE OPTIMIZATION HAS CONVERGED     ***
                    *************************************************


    ---------------------------------------------------------------------------
                         Redundant Internal Coordinates

                          --- Optimized Parameters ---  
                            (Angstroem and degrees)

        Definition                    OldVal   dE/dq     Step     FinalVal
    ----------------------------------------------------------------------------
     1. B(C   1,C   0)                1.5141 -0.000002  0.0000    1.5142   
     2. B(N   2,C   1)                1.5176  0.000001  0.0000    1.5177   
     3. B(C   3,C   1)                1.5113  0.000015 -0.0000    1.5112   
     4. B(C   4,C   3)                1.3329 -0.000021  0.0000    1.3329   
     5. B(C   5,C   3)                1.4240  0.000010 -0.0000    1.4240   
     6. B(C   6,C   5)                1.2042  0.000018 -0.0000    1.2042   
     7. B(H   7,C   0)                1.0899 -0.000007  0.0001    1.0899   
     8. B(H   8,C   0)                1.0930  0.000000 -0.0000    1.0930   
     9. B(H   9,C   0)                1.0925  0.000003  0.0000    1.0925   
    10. B(H  10,C   1)                1.0910 -0.000003  0.0000    1.0910   
    11. B(H  11,N   2)                1.0300  0.000010 -0.0000    1.0300   
    12. B(H  12,N   2)                1.0209  0.000004  0.0000    1.0209   
    13. B(H  13,N   2)                1.0217 -0.000003  0.0000    1.0217   
    14. B(H  14,C   4)                1.0824  0.000002 -0.0000    1.0824   
    15. B(H  15,C   4)                1.0840  0.000001 -0.0000    1.0840   
    16. B(H  16,C   6)                1.0678  0.000003  0.0000    1.0678   
    17. A(C   1,C   0,H   7)          108.84  0.000009   -0.00    108.84   
    18. A(C   1,C   0,H   8)          111.63 -0.000026    0.01    111.64   
    19. A(C   1,C   0,H   9)          111.29 -0.000021    0.01    111.30   
    20. A(H   8,C   0,H   9)          109.37  0.000013    0.00    109.37   
    21. A(H   7,C   0,H   8)          107.76  0.000024   -0.02    107.75   
    22. A(H   7,C   0,H   9)          107.79  0.000002    0.00    107.80   
    23. A(N   2,C   1,C   3)          106.76  0.000008    0.00    106.76   
    24. A(C   0,C   1,N   2)          108.42 -0.000008    0.00    108.43   
    25. A(N   2,C   1,H  10)          106.13  0.000003   -0.00    106.13   
    26. A(C   0,C   1,C   3)          113.96 -0.000006    0.00    113.96   
    27. A(C   3,C   1,H  10)          109.91 -0.000009    0.01    109.92   
    28. A(C   0,C   1,H  10)          111.24  0.000012   -0.01    111.23   
    29. A(H  12,N   2,H  13)          108.89  0.000009   -0.00    108.88   
    30. A(H  11,N   2,H  13)          107.42  0.000016   -0.01    107.42   
    31. A(C   1,N   2,H  13)          111.52  0.000001   -0.00    111.52   
    32. A(H  11,N   2,H  12)          109.20  0.000023   -0.01    109.19   
    33. A(C   1,N   2,H  12)          111.97 -0.000014    0.00    111.97   
    34. A(C   1,N   2,H  11)          107.71 -0.000034    0.01    107.73   
    35. A(C   4,C   3,C   5)          123.98 -0.000005    0.00    123.98   
    36. A(C   1,C   3,C   5)          114.28  0.000000   -0.00    114.28   
    37. A(C   1,C   3,C   4)          121.74  0.000005   -0.00    121.74   
    38. A(H  14,C   4,H  15)          117.62 -0.000015    0.00    117.62   
    39. A(C   3,C   4,H  15)          121.23  0.000020   -0.01    121.23   
    40. A(C   3,C   4,H  14)          121.14 -0.000005    0.00    121.14   
    41. A(C   3,C   5,C   6)          174.45 -0.000042    0.01    174.46   
    42. L(C   5,C   6,H  16, 2)       183.53 -0.000000    0.00    183.53   
    43. L(C   5,C   6,H  16, 1)       179.06  0.000006   -0.00    179.06   
    44. D(N   2,C   1,C   0,H   9)    -62.78  0.000007   -0.02    -62.80   
    45. D(N   2,C   1,C   0,H   8)     59.73 -0.000009   -0.01     59.73   
    46. D(C   3,C   1,C   0,H   7)    -62.71  0.000013   -0.02    -62.73   
    47. D(H  10,C   1,C   0,H   8)    -56.61 -0.000015    0.00    -56.60   
    48. D(H  10,C   1,C   0,H   7)     62.22  0.000005   -0.02     62.20   
    49. D(N   2,C   1,C   0,H   7)    178.56  0.000011   -0.02    178.54   
    50. D(C   3,C   1,C   0,H   8)    178.46 -0.000007    0.00    178.46   
    51. D(H  10,C   1,C   0,H   9)   -179.12  0.000001   -0.01   -179.14   
    52. D(C   3,C   1,C   0,H   9)     55.95  0.000009   -0.01     55.93   
    53. D(H  12,N   2,C   1,C   3)   -170.51  0.000006   -0.04   -170.55   
    54. D(H  12,N   2,C   1,C   0)    -47.32 -0.000000   -0.03    -47.35   
    55. D(H  11,N   2,C   1,H  10)   -167.66  0.000010   -0.04   -167.70   
    56. D(H  11,N   2,C   1,C   3)    -50.44  0.000005   -0.04    -50.48   
    57. D(H  12,N   2,C   1,H  10)     72.27  0.000011   -0.04     72.23   
    58. D(H  11,N   2,C   1,C   0)     72.75 -0.000002   -0.03     72.72   
    59. D(H  13,N   2,C   1,H  10)    -50.02  0.000009   -0.04    -50.06   
    60. D(H  13,N   2,C   1,C   3)     67.20  0.000004   -0.04     67.16   
    61. D(H  13,N   2,C   1,C   0)   -169.62 -0.000002   -0.03   -169.65   
    62. D(C   5,C   3,C   1,H  10)    165.33  0.000009   -0.04    165.28   
    63. D(C   5,C   3,C   1,N   2)     50.63  0.000005   -0.04     50.59   
    64. D(C   5,C   3,C   1,C   0)    -69.04  0.000013   -0.05    -69.09   
    65. D(C   4,C   3,C   1,H  10)    -15.37  0.000004   -0.04    -15.41   
    66. D(C   4,C   3,C   1,N   2)   -130.06  0.000000   -0.04   -130.10   
    67. D(C   4,C   3,C   1,C   0)    110.27  0.000008   -0.04    110.22   
    68. D(H  15,C   4,C   3,C   5)   -179.09  0.000000   -0.01   -179.10   
    69. D(H  15,C   4,C   3,C   1)      1.68  0.000006   -0.02      1.66   
    70. D(H  14,C   4,C   3,C   5)      1.96  0.000002   -0.01      1.95   
    71. D(H  14,C   4,C   3,C   1)   -177.28  0.000007   -0.02   -177.30   
    ----------------------------------------------------------------------------
                 *******************************************************
                 *** FINAL ENERGY EVALUATION AT THE STATIONARY POINT ***
                 ***               (AFTER    2 CYCLES)               ***
                 *******************************************************


           ************************************************************
           *        Program running with 8 parallel MPI-processes     *
           *              working on a common directory               *
           ************************************************************
           ************************************************************
           *              Shut down parallel processing               *
           ************************************************************


           ************************************************************
           *        Program running with 8 parallel MPI-processes     *
           *              working on a common directory               *
           ************************************************************
------------
SCF SETTINGS
------------
Hamiltonian:
 Density Functional     Method          .... DFT(GTOs)
 Exchange Functional    Exchange        .... PBE
   PBE kappa parameter  XKappa          ....  0.804000
 Correlation Functional Correlation     .... PBE
 LDA part of GGA corr.  LDAOpt          .... PW91-LDA
 Gradients option       PostSCFGGA      .... off
 Hybrid DFT is turned on
   Fraction HF Exchange ScalHFX         ....  0.250000
   Scaling of DF-GGA-X  ScalDFX         ....  0.750000
   Scaling of DF-GGA-C  ScalDFC         ....  1.000000
   Scaling of DF-LDA-C  ScalLDAC        ....  1.000000
   Perturbative correction              ....  0.000000
   NL short-range parameter             ....  6.900000


General Settings:
 Integral files         IntName         .... 2474_+
 Hartree-Fock type      HFTyp           .... RHF
 Total Charge           Charge          ....    1
 Multiplicity           Mult            ....    1
 Number of Electrons    NEL             ....   52
 Basis Dimension        Dim             ....  277
 Nuclear Repulsion      ENuc            ....    289.8528794343 Eh

Convergence Acceleration:
 DIIS                   CNVDIIS         .... on
   Start iteration      DIISMaxIt       ....    12
   Startup error        DIISStart       ....  0.200000
   # of expansion vecs  DIISMaxEq       ....     5
   Bias factor          DIISBfac        ....   1.050
   Max. coefficient     DIISMaxC        ....  10.000
 Newton-Raphson         CNVNR           .... off
 SOSCF                  CNVSOSCF        .... on
   Start iteration      SOSCFMaxIt      ....   150
   Startup grad/error   SOSCFStart      ....  0.003300
 Level Shifting         CNVShift        .... on
   Level shift para.    LevelShift      ....    0.2500
   Turn off err/grad.   ShiftErr        ....    0.0010
 Zerner damping         CNVZerner       .... off
 Static damping         CNVDamp         .... on
   Fraction old density DampFac         ....    0.7000
   Max. Damping (<1)    DampMax         ....    0.9800
   Min. Damping (>=0)   DampMin         ....    0.0000
   Turn off err/grad.   DampErr         ....    0.1000
 Fernandez-Rico         CNVRico         .... off

SCF Procedure:
 Maximum # iterations   MaxIter         ....   125
 SCF integral mode      SCFMode         .... Direct
   Integral package                     .... LIBINT
 Reset frequeny         DirectResetFreq ....    20
 Integral Threshold     Thresh          ....  2.500e-11 Eh
 Primitive CutOff       TCut            ....  2.500e-12 Eh

Convergence Tolerance:
 Convergence Check Mode ConvCheckMode   .... Total+1el-Energy
 Energy Change          TolE            ....  1.000e-08 Eh
 1-El. energy change                    ....  1.000e-05 Eh
 Orbital Gradient       TolG            ....  1.000e-05
 Orbital Rotation angle TolX            ....  1.000e-05
 DIIS Error             TolErr          ....  5.000e-07


Diagonalization of the overlap matrix:
Smallest eigenvalue                        ... 1.772e-05
Time for diagonalization                   ...    0.608 sec
Threshold for overlap eigenvalues          ... 1.000e-08
Number of eigenvalues below threshold      ... 0
Time for construction of square roots      ...    0.020 sec
Total time needed                          ...    0.629 sec

-------------------
DFT GRID GENERATION
-------------------

General Integration Accuracy     IntAcc      ...  4.340
Radial Grid Type                 RadialGrid  ... Gauss-Chebyshev
Angular Grid (max. acc.)         AngularGrid ... Lebedev-194
Angular grid pruning method      GridPruning ... 3 (G Style)
Weight generation scheme         WeightScheme... Becke
Basis function cutoff            BFCut       ...    1.0000e-11
Integration weight cutoff        WCut        ...    1.0000e-14
Grids for H and He will be reduced by one unit

# of grid points (after initial pruning)     ...  38278 (   0.0 sec)
# of grid points (after weights+screening)   ...  35174 (   0.2 sec)
nearest neighbour list constructed           ...    0.0 sec
Grid point re-assignment to atoms done       ...    0.0 sec
Grid point division into batches done        ...    0.1 sec
Reduced shell lists constructed in    0.2 sec

Total number of grid points                  ...    35174
Total number of batches                      ...      558
Average number of points per batch           ...       63
Average number of grid points per atom       ...     2069
Average number of shells per batch           ...    96.24 (82.26%)
Average number of basis functions per batch  ...   238.07 (85.95%)
Average number of large shells per batch     ...    80.48 (83.62%)
Average number of large basis fcns per batch ...   196.54 (82.55%)
Maximum spatial batch extension              ...   2.04,  2.31,  2.30 au
Average spatial batch extension              ...   0.14,  0.15,  0.14 au

Time for grid setup =    0.479 sec

--------------
SCF ITERATIONS
--------------
ITER       Energy         Delta-E        Max-DP      RMS-DP      [F,P]     Damp
               ***  Starting incremental Fock matrix formation  ***
                      *** Initiating the SOSCF procedure ***
                      *** Re-Reading the Fockian *** 
                      *** Removing any level shift *** 
ITER      Energy       Delta-E        Grad      Rot      Max-DP    RMS-DP
  0   -288.83517523 -288.8351752288  0.000223  0.000223  0.000259  0.000008
               *** Restarting incremental Fock matrix formation ***
  1   -288.83517582  -0.0000005899  0.000038  0.000094  0.000143  0.000004
  2   -288.83517588  -0.0000000568  0.000017  0.000048  0.000043  0.000001
  3   -288.83517587   0.0000000087  0.000038  0.000036  0.000025  0.000001
  4   -288.83517588  -0.0000000127  0.000003  0.000004  0.000015  0.000000
                  ***Gradient check signals convergence***
              ***Rediagonalizing the Fockian in SOSCF/NRSCF***

               *****************************************************
               *                     SUCCESS                       *
               *           SCF CONVERGED AFTER   5 CYCLES          *
               *****************************************************

Setting up the final grid:

General Integration Accuracy     IntAcc      ...  5.010
Radial Grid Type                 RadialGrid  ... Gauss-Chebyshev
Angular Grid (max. acc.)         AngularGrid ... Lebedev-434
Angular grid pruning method      GridPruning ... 3 (G Style)
Weight generation scheme         WeightScheme... Becke
Basis function cutoff            BFCut       ...    1.0000e-11
Integration weight cutoff        WCut        ...    1.0000e-14
Grids for H and He will be reduced by one unit

# of grid points (after initial pruning)     ... 141698 (   0.0 sec)
# of grid points (after weights+screening)   ... 128726 (   0.4 sec)
nearest neighbour list constructed           ...    0.0 sec
Grid point re-assignment to atoms done       ...    0.0 sec
Grid point division into batches done        ...    0.9 sec
Reduced shell lists constructed in    1.2 sec

Total number of grid points                  ...   128726
Total number of batches                      ...     2021
Average number of points per batch           ...       63
Average number of grid points per atom       ...     7572
Average number of shells per batch           ...    94.98 (81.18%)
Average number of basis functions per batch  ...   234.46 (84.64%)
Average number of large shells per batch     ...    78.33 (82.47%)
Average number of large basis fcns per batch ...   191.01 (81.47%)
Maximum spatial batch extension              ...   1.98,  1.99,  2.72 au
Average spatial batch extension              ...   0.10,  0.10,  0.10 au

Final grid set up in    2.3 sec
Final integration                            ... done (   1.0 sec)
Change in XC energy                          ...     0.000380965
Integrated number of electrons               ...    51.999986694
Previous integrated no of electrons          ...    52.000465586
Total Energy       :         -288.83479491 Eh           -7859.59434 eV
  Last Energy change         ...    1.4211e-11  Tolerance :   1.0000e-08
  Last MAX-Density change    ...    6.2879e-06  Tolerance :   1.0000e-07
             **** THE GBW FILE WAS UPDATED (2474_+.gbw) ****
             **** DENSITY FILE WAS UPDATED (2474_+.scfp.tmp) ****
             **** ENERGY FILE WAS UPDATED (2474_+.en.tmp) ****
Total SCF time: 0 days 0 hours 0 min 39 sec 
           ************************************************************
           *              Shut down parallel processing               *
           ************************************************************

-------------------------   --------------------
FINAL SINGLE POINT ENERGY      -288.834794914967
-------------------------   --------------------

                                *** OPTIMIZATION RUN DONE ***

                            ***************************************
                            *     ORCA property calculations      *
                            ***************************************

                                    ---------------------
                                    Active property flags
                                    ---------------------




           ************************************************************
           *        Program running with 8 parallel MPI-processes     *
           *              working on a common directory               *
           ************************************************************

-------------------------------------------------------------------------------
                               ORCA SCF HESSIAN
-------------------------------------------------------------------------------

Hessian of the Kohn-Sham DFT energy:
Kohn-Sham wavefunction type                      ... RKS
Hartree-Fock exchange scaling                    ...    0.250
Number of operators                              ...    1
Number of atoms                                  ...   17
Basis set dimensions                             ...  277
Integral neglect threshold                       ... 2.5e-11
Integral primitive cutoff                        ... 2.5e-12

Setting up DFT Hessian calculations              ... 
Electron density on the grid                     ... found on disk
Electron density on the final grid               ... found on disk
Building xc-kernel on the grid                   ... done   (      0.0 sec)
Building xc-kernel on the final grid             ... done   (      0.1 sec)
                                                     done   (      7.8 sec)

Nuclear repulsion Hessian                        ... done   (      0.0 sec)

----------------------------------------------
Forming right-hand sides of CP-SCF equations     ...
----------------------------------------------
One electron integral derivatives                ... done   (      0.3 sec)
Transforming the overlap derivative matrices     ... done   (      0.3 sec)
Making the Q(x) pseudodensities                  ... done   (      0.2 sec)
Adding the E*S(x)*S(y) terms to the Hessian      ... done   (      0.0 sec)
Calculating energy weighted overlap derivatives  ... done   (      0.0 sec)
Two electron integral derivatives                ... done   (     43.7 sec)
Exchange-correlation integral derivatives        ... done   (     57.2 sec)
tr(F(y)Q(x)) contribution to the Hessian         ... done   (      0.0 sec)
Response fock operator R(S(x))                   ... done   (    163.1 sec)
XC Response fock operator R(S(x))                ... done   (     21.9 sec)
tr(F(y)S(x)) contribution to the Hessian         ... done   (      0.0 sec)
Transforming and finalizing RHSs                 ... done   (      0.1 sec)

----------------------------------------------
Solving the CP-SCF equations                     ...
----------------------------------------------
     CP-SCF ITERATION   0: 
     CP-SCF ITERATION   1:      0.001255873
     CP-SCF ITERATION   2:      0.000191674
     CP-SCF ITERATION   3:      0.000027194
     CP-SCF ITERATION   4:      0.000003266
     CP-SCF ITERATION   5:      0.000000172
     CP-SCF ITERATION   6:      0.000000014
     CP-SCF ITERATION   7:      0.000000008

                                                 ... done   (   1366.3 sec)
Forming perturbed density Hessian contributions  ... done   (      0.1 sec)
Making the perturbed densities                   ... done   (      0.1 sec)
2nd integral derivative contribs                 ... done   (    211.8 sec)
Exchange-correlation Hessian                     ... done   (     27.2 sec)
Dipol derivatives                                ... done   (      5.4 sec)

Total SCF Hessian time: 0 days 0 hours 31 min 46 sec 

Writing the Hessian file to the disk             ... done

           ************************************************************
           *              Shut down parallel processing               *
           ************************************************************

-----------------------
VIBRATIONAL FREQUENCIES
-----------------------

   0:         0.00 cm**-1
   1:         0.00 cm**-1
   2:         0.00 cm**-1
   3:         0.00 cm**-1
   4:         0.00 cm**-1
   5:         0.00 cm**-1
   6:        73.50 cm**-1
   7:       143.96 cm**-1
   8:       197.22 cm**-1
   9:       234.41 cm**-1
  10:       254.27 cm**-1
  11:       315.10 cm**-1
  12:       330.23 cm**-1
  13:       356.75 cm**-1
  14:       472.83 cm**-1
  15:       626.84 cm**-1
  16:       657.84 cm**-1
  17:       701.63 cm**-1
  18:       725.98 cm**-1
  19:       749.79 cm**-1
  20:       753.53 cm**-1
  21:       858.09 cm**-1
  22:       935.69 cm**-1
  23:       954.97 cm**-1
  24:       973.08 cm**-1
  25:      1002.04 cm**-1
  26:      1085.82 cm**-1
  27:      1093.17 cm**-1
  28:      1213.95 cm**-1
  29:      1293.90 cm**-1
  30:      1344.51 cm**-1
  31:      1374.72 cm**-1
  32:      1417.18 cm**-1
  33:      1450.44 cm**-1
  34:      1477.04 cm**-1
  35:      1487.57 cm**-1
  36:      1489.76 cm**-1
  37:      1636.10 cm**-1
  38:      1656.96 cm**-1
  39:      1699.92 cm**-1
  40:      2214.09 cm**-1
  41:      3058.39 cm**-1
  42:      3118.28 cm**-1
  43:      3139.98 cm**-1
  44:      3160.79 cm**-1
  45:      3173.88 cm**-1
  46:      3273.17 cm**-1
  47:      3337.34 cm**-1
  48:      3450.13 cm**-1
  49:      3468.57 cm**-1
  50:      3522.33 cm**-1


------------
NORMAL MODES
------------

These modes are the cartesian displacements weighted by the diagonal matrix
M(i,i)=1/sqrt(m[i]) where m[i] is the mass of the displaced atom
Thus, these vectors are normalized but *not* orthogonal

                  0          1          2          3          4          5    
      0       0.000000   0.000000   0.000000   0.000000   0.000000   0.000000
      1       0.000000   0.000000   0.000000   0.000000   0.000000   0.000000
      2       0.000000   0.000000   0.000000   0.000000   0.000000   0.000000
      3       0.000000   0.000000   0.000000   0.000000   0.000000   0.000000
      4       0.000000   0.000000   0.000000   0.000000   0.000000   0.000000
      5       0.000000   0.000000   0.000000   0.000000   0.000000   0.000000
      6       0.000000   0.000000   0.000000   0.000000   0.000000   0.000000
      7       0.000000   0.000000   0.000000   0.000000   0.000000   0.000000
      8       0.000000   0.000000   0.000000   0.000000   0.000000   0.000000
      9       0.000000   0.000000   0.000000   0.000000   0.000000   0.000000
     10       0.000000   0.000000   0.000000   0.000000   0.000000   0.000000
     11       0.000000   0.000000   0.000000   0.000000   0.000000   0.000000
     12       0.000000   0.000000   0.000000   0.000000   0.000000   0.000000
     13       0.000000   0.000000   0.000000   0.000000   0.000000   0.000000
     14       0.000000   0.000000   0.000000   0.000000   0.000000   0.000000
     15       0.000000   0.000000   0.000000   0.000000   0.000000   0.000000
     16       0.000000   0.000000   0.000000   0.000000   0.000000   0.000000
     17       0.000000   0.000000   0.000000   0.000000   0.000000   0.000000
     18       0.000000   0.000000   0.000000   0.000000   0.000000   0.000000
     19       0.000000   0.000000   0.000000   0.000000   0.000000   0.000000
     20       0.000000   0.000000   0.000000   0.000000   0.000000   0.000000
     21       0.000000   0.000000   0.000000   0.000000   0.000000   0.000000
     22       0.000000   0.000000   0.000000   0.000000   0.000000   0.000000
     23       0.000000   0.000000   0.000000   0.000000   0.000000   0.000000
     24       0.000000   0.000000   0.000000   0.000000   0.000000   0.000000
     25       0.000000   0.000000   0.000000   0.000000   0.000000   0.000000
     26       0.000000   0.000000   0.000000   0.000000   0.000000   0.000000
     27       0.000000   0.000000   0.000000   0.000000   0.000000   0.000000
     28       0.000000   0.000000   0.000000   0.000000   0.000000   0.000000
     29       0.000000   0.000000   0.000000   0.000000   0.000000   0.000000
     30       0.000000   0.000000   0.000000   0.000000   0.000000   0.000000
     31       0.000000   0.000000   0.000000   0.000000   0.000000   0.000000
     32       0.000000   0.000000   0.000000   0.000000   0.000000   0.000000
     33       0.000000   0.000000   0.000000   0.000000   0.000000   0.000000
     34       0.000000   0.000000   0.000000   0.000000   0.000000   0.000000
     35       0.000000   0.000000   0.000000   0.000000   0.000000   0.000000
     36       0.000000   0.000000   0.000000   0.000000   0.000000   0.000000
     37       0.000000   0.000000   0.000000   0.000000   0.000000   0.000000
     38       0.000000   0.000000   0.000000   0.000000   0.000000   0.000000
     39       0.000000   0.000000   0.000000   0.000000   0.000000   0.000000
     40       0.000000   0.000000   0.000000   0.000000   0.000000   0.000000
     41       0.000000   0.000000   0.000000   0.000000   0.000000   0.000000
     42       0.000000   0.000000   0.000000   0.000000   0.000000   0.000000
     43       0.000000   0.000000   0.000000   0.000000   0.000000   0.000000
     44       0.000000   0.000000   0.000000   0.000000   0.000000   0.000000
     45       0.000000   0.000000   0.000000   0.000000   0.000000   0.000000
     46       0.000000   0.000000   0.000000   0.000000   0.000000   0.000000
     47       0.000000   0.000000   0.000000   0.000000   0.000000   0.000000
     48       0.000000   0.000000   0.000000   0.000000   0.000000   0.000000
     49       0.000000   0.000000   0.000000   0.000000   0.000000   0.000000
     50       0.000000   0.000000   0.000000   0.000000   0.000000   0.000000
                  6          7          8          9         10         11    
      0      -0.046938  -0.077275   0.144401   0.008351  -0.006897   0.033567
[...]
     49      -0.032282  -0.009034   0.004041   0.022357   0.000082   0.000687
     50       0.003131   0.003014  -0.001392  -0.006601  -0.000657   0.004077
                 36         37         38         39         40         41    
      0      -0.025397  -0.004348   0.000945   0.005094  -0.000200   0.043939
      1       0.007799  -0.001730   0.001717  -0.001241  -0.000413   0.027386
      2      -0.026321   0.002275  -0.000184   0.003075  -0.000614   0.005475
      3      -0.021861   0.009649  -0.015608   0.030452   0.002825  -0.000857
      4       0.007180   0.016275   0.006943   0.028354   0.001954  -0.002280
      5      -0.033297  -0.004068  -0.012089   0.042297   0.004612   0.001203
      6       0.031072   0.029675  -0.039037   0.001859   0.000284  -0.000156
      7      -0.031125   0.033617   0.010086  -0.003798   0.001479  -0.000023
      8      -0.041539  -0.019313  -0.029519   0.014694   0.000386   0.000265
      9       0.012145  -0.005171   0.004100  -0.117522   0.030441  -0.000312
     10      -0.005635  -0.006944  -0.008965  -0.381369  -0.093107   0.000149
     11       0.014565  -0.006278  -0.000251  -0.265266   0.009872  -0.000393
     12      -0.000292   0.003015   0.000749   0.107479   0.000389   0.000062
     13       0.007714   0.008055   0.005726   0.324999   0.000999  -0.000045
     14       0.001665   0.006606   0.002741   0.238260   0.000605   0.000034
     15      -0.000930   0.001273  -0.000743   0.012824  -0.171400  -0.000023
     16       0.000854  -0.001259   0.000153  -0.001443   0.514780   0.000042
     17      -0.000936  -0.000041   0.000481   0.012705  -0.036640   0.000005
     18      -0.000226  -0.000388  -0.001199  -0.018733   0.118337  -0.000051
     19       0.001782   0.001721   0.001483   0.053065  -0.363768  -0.000039
     20       0.000213  -0.000811   0.000155  -0.004589   0.017858  -0.000035
     21       0.194610   0.031302   0.015359  -0.009700   0.001185  -0.177844
     22      -0.381678   0.017032  -0.033223   0.008770   0.000010   0.191016
     23       0.322138   0.009878   0.027633  -0.010772   0.001994   0.331714
     24       0.321938   0.010315   0.029725  -0.010978  -0.000899  -0.399539
     25       0.095930  -0.030378   0.001351  -0.011202  -0.003272   0.076264
     26      -0.262558  -0.016967  -0.024922   0.014331   0.000575  -0.532168
     27      -0.135153  -0.017854  -0.022414  -0.014210  -0.003624   0.068443
     28       0.088713  -0.011540   0.007597  -0.005070  -0.000145  -0.589377
     29       0.436479  -0.025406   0.028051  -0.011980   0.000811   0.133761
     30       0.050000  -0.020135  -0.005181  -0.096103  -0.015247  -0.001815
     31       0.040251   0.028481   0.020929  -0.039476  -0.008284   0.021630
     32       0.057637   0.041226   0.029348  -0.169849  -0.013167  -0.006130
     33      -0.123830  -0.341476   0.587642   0.009723   0.001673   0.001689
     34       0.019961  -0.178334   0.181771   0.019553  -0.023187   0.000746
     35       0.300564  -0.360773  -0.088283   0.056720  -0.014265  -0.000531
     36      -0.207260  -0.209763  -0.309570   0.041574   0.002501   0.001655
     37       0.189924  -0.627071   0.045718   0.082466  -0.008086   0.000115
     38       0.146435   0.240993   0.212062  -0.024496   0.001257  -0.004665
     39      -0.071125   0.096188   0.389540  -0.037644   0.000641   0.000059
     40       0.232249   0.158766  -0.439135   0.007544   0.001457  -0.000813
     41       0.157987   0.425598   0.341629  -0.079853   0.002259  -0.001295
     42       0.005182   0.007818   0.000587   0.207664   0.002661   0.000129
     43      -0.076197  -0.017197  -0.014644  -0.452639  -0.001690   0.000106
     44      -0.016035   0.000391   0.001026   0.117253   0.002357   0.000818
     45      -0.030491  -0.013736  -0.004002  -0.313220   0.008175  -0.000071
     46      -0.013612  -0.000911   0.002814   0.106391   0.001934   0.000370
     47      -0.043800  -0.015930  -0.006729  -0.386937   0.010201  -0.000127
     48       0.000012  -0.003052   0.000848  -0.036419   0.232635  -0.000039
     49       0.002304   0.001965   0.002565   0.069945  -0.699538  -0.000167
     50       0.004000  -0.003036  -0.000630  -0.024153   0.053934  -0.000001
                 42         43         44         45         46         47    
      0      -0.016950   0.030927  -0.025763  -0.000057  -0.000010   0.000046
      1       0.027636  -0.048240   0.060836   0.000370   0.000009  -0.000322
      2      -0.018767   0.064104   0.063012  -0.000169  -0.000029  -0.000116
      3       0.008360   0.003457  -0.001581  -0.000484   0.000165  -0.001164
      4      -0.075365  -0.032067   0.010288   0.001689   0.000729   0.004141
      5       0.018007   0.008442  -0.001223  -0.000629   0.000069   0.001903
      6      -0.000534   0.000143   0.000905   0.000121   0.000054  -0.020560
      7       0.002960   0.001172  -0.000632  -0.000167   0.000007   0.053582
      8      -0.001004  -0.000315  -0.000391   0.000120   0.000122  -0.001761
      9      -0.000402  -0.000509   0.000102  -0.002671  -0.000339   0.000123
     10      -0.000749  -0.000268   0.000059  -0.006536   0.001414  -0.000501
     11      -0.000491  -0.000263   0.000044  -0.005366  -0.000003  -0.000342
     12      -0.000201  -0.000080   0.000010   0.011906  -0.057952  -0.000050
     13       0.001613   0.001002  -0.000376   0.059533   0.054480   0.000332
     14       0.000129   0.000054  -0.000187   0.033831  -0.060828  -0.000004
     15      -0.000273  -0.000146  -0.000042   0.000229   0.000076   0.000548
     16       0.000285   0.000183   0.000093  -0.000543  -0.000454  -0.001193
     17      -0.000201  -0.000146   0.000017   0.000115  -0.000060   0.000508
     18       0.000001   0.000042  -0.000034  -0.000045   0.000048   0.000081
     19       0.000021   0.000075  -0.000045   0.000187  -0.000053   0.000108
     20       0.000049   0.000028  -0.000033   0.000007   0.000040   0.000524
     21       0.016264   0.084087   0.391331   0.000242  -0.000058   0.002984
     22      -0.017462  -0.089764  -0.390718   0.000164   0.000324  -0.000081
     23      -0.045906  -0.125541  -0.695539  -0.000099   0.000283  -0.001990
     24       0.156176  -0.393592  -0.125196   0.001669   0.000786  -0.002186
     25      -0.023929   0.063995   0.032853  -0.000198   0.000013   0.000296
     26       0.212097  -0.517574  -0.150793   0.001775   0.000666  -0.001560
     27       0.032221  -0.058776   0.037216   0.000180  -0.000119  -0.000688
     28      -0.282820   0.606603  -0.371941  -0.004600  -0.000808  -0.000007
     29       0.059530  -0.123512   0.095875   0.000915   0.000095   0.000680
     30      -0.095645  -0.035674   0.009509   0.003271   0.002187   0.003462
     31       0.884070   0.370936  -0.112996  -0.020052  -0.006873  -0.030104
     32      -0.207802  -0.088320   0.025390   0.006029   0.003466   0.000059
     33       0.007848  -0.000125   0.000224  -0.000377   0.000361   0.270018
     34      -0.027429  -0.008761   0.005845   0.001579  -0.001192  -0.870927
     35       0.014112   0.007220  -0.002949  -0.000773  -0.000156   0.241512
     36       0.001684   0.001225   0.000857  -0.000135  -0.000907  -0.153929
     37      -0.000830  -0.001625   0.001023   0.000148  -0.000055  -0.012028
     38      -0.000355  -0.005888  -0.001266   0.000381  -0.000687  -0.176297
     39      -0.001336  -0.002534  -0.001074  -0.000181  -0.000038   0.176572
     40      -0.004668  -0.001983  -0.001438   0.000017   0.000284   0.125140
     41      -0.003029  -0.002009  -0.000317   0.000214   0.000071  -0.063587
     42      -0.003732  -0.003004   0.001276  -0.382926   0.476395  -0.001663
     43       0.002475   0.001436  -0.000502   0.084806  -0.090303  -0.000573
     44      -0.004668  -0.003933   0.001444  -0.486131   0.610227  -0.001383
     45       0.006653   0.004560  -0.001482   0.271756   0.212006   0.000523
     46      -0.015625  -0.011248   0.003020  -0.713783  -0.570617   0.000705
     47       0.005126   0.003204  -0.000860   0.145306   0.108935   0.000024
     48       0.000053   0.000406   0.000151  -0.000974  -0.000113  -0.004434
     49      -0.000125  -0.000782  -0.000653   0.002433   0.000363   0.012458
     50       0.000033   0.000196   0.000068  -0.000392   0.000012  -0.002442
                  48         49         50    
      0       0.000006  -0.000052  -0.000503
      1      -0.000020   0.000162  -0.000067
      2       0.000040  -0.000441  -0.000421
      3       0.000204   0.000035   0.000254
      4      -0.000053  -0.001160   0.000152
      5       0.000273   0.000584   0.000139
      6       0.000232  -0.007650   0.072140
      7      -0.000578  -0.042973   0.025006
      8      -0.000167   0.052990   0.028182
      9       0.000643   0.000139  -0.000083
     10      -0.001070   0.000053  -0.000097
     11       0.000546  -0.000126  -0.000362
     12      -0.000162  -0.000034   0.000024
     13      -0.000503  -0.000135  -0.000060
     14      -0.000384   0.000016   0.000049
     15      -0.010202  -0.000321  -0.000064
     16       0.030932   0.000664   0.000191
     17      -0.001826  -0.000258  -0.000067
     18       0.036301   0.000198   0.000039
     19      -0.107907  -0.000737  -0.000127
     20       0.009554  -0.000166  -0.000034
     21       0.000356   0.001348  -0.000454
     22      -0.000213  -0.000095   0.000983
     23      -0.000408  -0.001152   0.001350
     24      -0.000526   0.001152   0.001957
     25      -0.000052  -0.000884  -0.000918
     26      -0.000508   0.002225   0.003493
     27       0.000019   0.000402  -0.000045
     28       0.000238  -0.000333  -0.000711
     29       0.000025   0.000142   0.000536
     30      -0.000336  -0.000221  -0.000743
     31       0.000460   0.012658  -0.001700
     32      -0.000327  -0.002384   0.000363
     33      -0.002994  -0.089701   0.004361
     34       0.009919   0.271669   0.035175
     35      -0.002475  -0.064777  -0.003135
     36       0.003345  -0.400222  -0.487460
     37       0.000247  -0.047919  -0.047616
     38       0.003746  -0.458933  -0.580767
     39      -0.003563   0.594608  -0.515254
     40      -0.002290   0.373687  -0.333657
     41       0.001599  -0.206790   0.195181
     42       0.000467  -0.000380  -0.000218
     43      -0.000076   0.000101   0.000209
     44       0.000613   0.000034  -0.000416
     45      -0.000380   0.000207  -0.000433
     46       0.001446   0.000268   0.000543
     47      -0.000088  -0.000224   0.000048
     48      -0.318833  -0.000469  -0.000172
     49       0.935167   0.001721   0.000313
     50      -0.097594   0.000174   0.000023


-----------
IR SPECTRUM
-----------

 Mode    freq (cm**-1)   T**2         TX         TY         TZ
-------------------------------------------------------------------
   6:        73.50    5.152392  ( -0.262868  -2.092632   0.839156)
   7:       143.96    3.814625  ( -0.732572   1.169176  -1.382386)
   8:       197.22    6.770703  ( -2.411367  -0.480945  -0.851296)
   9:       234.41    0.816302  ( -0.121465   0.469126  -0.762541)
  10:       254.27    1.824946  (  0.833330   0.441914   0.967067)
  11:       315.10    5.000292  ( -0.235537  -1.053837   1.958122)
  12:       330.23   12.407102  ( -3.057415  -0.483590   1.680910)
  13:       356.75   14.705400  (  1.944994  -0.282121   3.292842)
  14:       472.83   21.745434  ( -1.106466   1.512715  -4.269995)
  15:       626.84    3.490980  ( -1.275281  -0.616859  -1.218246)
  16:       657.84   10.125141  ( -1.934599   0.086037   2.524889)
  17:       701.63   36.778348  (  5.218565   0.943552  -2.941877)
  18:       725.98    1.509038  ( -0.391362  -1.011738  -0.576420)
  19:       749.79    5.158969  (  1.227745   1.020638   1.615521)
  20:       753.53   34.824632  ( -2.111368  -1.929947  -5.161595)
  21:       858.09    4.781014  (  0.748462   1.157388  -1.697431)
  22:       935.69    3.567411  ( -0.360291   1.844694   0.186292)
  23:       954.97    8.703641  (  1.709408   1.268282  -2.042798)
  24:       973.08    9.713388  (  1.802740  -0.223185   2.532530)
  25:      1002.04   36.075385  (  4.583925   1.318560  -3.650263)
  26:      1085.82   35.466758  ( -3.084718   0.723998  -5.042529)
  27:      1093.17   26.632835  (  4.294304  -2.857915  -0.155264)
  28:      1213.95    7.262925  ( -1.855191  -1.911321  -0.409931)
  29:      1293.90    6.469898  (  0.265452   2.299437   1.054524)
  30:      1344.51    8.268939  (  2.336220  -0.490045   1.603393)
  31:      1374.72    8.893135  ( -0.046801  -1.803348   2.374633)
  32:      1417.18   26.368384  (  4.033169   0.895142  -3.049697)
  33:      1450.44   15.123778  (  1.036611   2.541124   2.755342)
  34:      1477.04    6.560337  (  1.211826  -2.184350  -0.566065)
  35:      1487.57  121.499361  ( -2.525097   4.941509   9.523903)
  36:      1489.76   57.682423  ( -1.296725   0.863566   7.433383)
  37:      1636.10   33.691648  ( -3.804473  -4.329169   0.689878)
  38:      1656.96   45.337641  (  3.953625  -2.594621   4.793165)
  39:      1699.92    1.033042  ( -0.480329  -0.799267  -0.404350)
  40:      2214.09    7.872090  (  1.121898  -2.178884   1.365979)
  41:      3058.39    3.603196  (  0.413797   0.727331   1.703807)
  42:      3118.28    0.443429  ( -0.475336  -0.455601   0.099562)
  43:      3139.98    4.263719  (  1.083557  -1.083916   1.383745)
  44:      3160.79    0.753992  (  0.759280   0.401393  -0.127942)
  45:      3173.88    3.112619  ( -0.774555  -0.851357  -1.337114)
  46:      3273.17    1.255735  (  0.703709  -0.115692   0.864375)
  47:      3337.34   68.028747  (  4.198863  -6.154552   3.538331)
  48:      3450.13  116.903482  ( -3.504934  10.182079  -0.971689)
  49:      3468.57  108.398361  (  0.475104   4.878181  -9.185640)
  50:      3522.33   85.823716  ( -8.202343  -2.862769  -3.217118)

The first frequency considered to be a vibration is 6
The total number of vibrations considered is 45


--------------------------
THERMOCHEMISTRY AT 298.15K
--------------------------

Temperature         ... 298.15 K
Pressure            ... 1.00 atm
Total Mass          ... 96.15 AMU

Throughout the following assumptions are being made:
  (1) The electronic state is orbitally nondegenerate
  (2) There are no thermally accessible electronically excited states
  (3) Hindered rotations indicated by low frequency modes) are not
      treated as such but are treated as vibrations and this may
      case some error
  (4) All equations used are the standard statistical mechanics
      equations for an ideal gas
  (5) All vibrations are strinctly harmonic


------------
INNER ENERGY
------------

The inner energy is: U= E(el) + E(ZPE) + E(vib) + E(rot) + E(trans)
    E(el)   - is the total energy from the electronic structure calculation
              = E(kin-el) + E(nuc-el) + E(el-el) + E(nuc-nuc)
    E(ZPE)  - the the zero temperature vibrational energy from the frequency calculation
    E(vib)  - the the finite temperature correction to E(ZPE) due to population
              of excietd vibrational states
    E(rot)  - is the rotational thermal energy
    E(trans)- is the translational thermal energy

Summary of contributions to the inner energy U:
Electronic energy                ...   -288.83479491 Eh
Zero point energy                ...      0.15025824 Eh      94.29 kcal/mol
Thermal vibrational correction   ...      0.00542252 Eh       3.40 kcal/mol
Thermal rotational correction    ...      0.00141627 Eh       0.89 kcal/mol
Thermal translational correction ...      0.00141627 Eh       0.89 kcal/mol
-----------------------------------------------------------------------
Total thermal energy                   -288.67628161 Eh


Summary of corrections to the electronic energy:
(perhaps to be used in another calculation)
Total thermal correction                  0.00825507 Eh       5.18 kcal/mol
Non-thermal (ZPE) correction              0.15025824 Eh      94.29 kcal/mol
-----------------------------------------------------------------------
Total correction                          0.15851331 Eh      99.47 kcal/mol


--------
ENTHALPY
--------

The enthalpy is H = U + kB*T
                kB is Boltzmann's constant
Total free energy                 ...   -288.67628161 Eh 
Thermal Enthalpy correction       ...      0.00094421 Eh       0.59 kcal/mol
-----------------------------------------------------------------------
Total Enthalpy                    ...   -288.67533740 Eh


-------
ENTROPY
-------

The entropy contributions are T*S = T*(S(el)+S(vib)+S(rot)+S(trans)
     S(el)   - electronic entropy
     S(vib)  - vibrational entropy
     S(rot)  - rotational entropy
     S(trans)- translational entropy
The entropies will be listed as mutliplied by the temperature to get
units of energy

Electronic entropy                ...      0.00000000 Eh      0.00 kcal/mol
Vibrational entropy               ...      0.00938058 Eh      5.89 kcal/mol
Rotational entropy                ...      0.01209265 Eh      7.59 kcal/mol
Translational entropy             ...      0.01881568 Eh     11.81 kcal/mol
-----------------------------------------------------------------------
Final entropy term                ...      0.04028892 Eh     25.28 kcal/mol


CAUTION: The rotational entropy is not quite correctly treated here
         because it includes a symmetry number that is not yet correctly
         implemented in ORCA!
For a nonlinear molecule the correct rotational entropy is:
    S(rot) = R*(ln(qrot/sn)+1.5)
    R    = 8.31441 J/mol/K = 1.987191683e-3 kcal/mol/K
    qrot = 244304.2680064
    sn is the rotational symmetry number. We have assumed 3 here
       if it is different for your molecule then you should correct
       the printed rotational entropy by manually evaluating the equation
       as given above

For convenience we print out the resulting values for sn=1 - 12:
 sn= 1  qrot/sn=  244304.2680 T*S(rot)=     8.24 kcal/mol T*S(tot)=    25.93 kcal/mol
 sn= 2  qrot/sn=  122152.1340 T*S(rot)=     7.83 kcal/mol T*S(tot)=    25.52 kcal/mol
 sn= 3  qrot/sn=   81434.7560 T*S(rot)=     7.59 kcal/mol T*S(tot)=    25.28 kcal/mol
 sn= 4  qrot/sn=   61076.0670 T*S(rot)=     7.42 kcal/mol T*S(tot)=    25.11 kcal/mol
 sn= 5  qrot/sn=   48860.8536 T*S(rot)=     7.29 kcal/mol T*S(tot)=    24.98 kcal/mol
 sn= 6  qrot/sn=   40717.3780 T*S(rot)=     7.18 kcal/mol T*S(tot)=    24.87 kcal/mol
 sn= 7  qrot/sn=   34900.6097 T*S(rot)=     7.09 kcal/mol T*S(tot)=    24.78 kcal/mol
 sn= 8  qrot/sn=   30538.0335 T*S(rot)=     7.01 kcal/mol T*S(tot)=    24.70 kcal/mol
 sn= 9  qrot/sn=   27144.9187 T*S(rot)=     6.94 kcal/mol T*S(tot)=    24.63 kcal/mol
 sn=10  qrot/sn=   24430.4268 T*S(rot)=     6.87 kcal/mol T*S(tot)=    24.57 kcal/mol
 sn=11  qrot/sn=   22209.4789 T*S(rot)=     6.82 kcal/mol T*S(tot)=    24.51 kcal/mol
 sn=12  qrot/sn=   20358.6890 T*S(rot)=     6.77 kcal/mol T*S(tot)=    24.46 kcal/mol


-------------------
GIBBS FREE ENTHALPY
-------------------

The Gibbs free enthalpy is G = H - T*S

Total enthalpy                    ...   -288.67533740 Eh 
Total entropy correction          ...     -0.04028892 Eh    -25.28 kcal/mol
-----------------------------------------------------------------------
Final Gibbs free enthalpy         ...   -288.71562632 Eh

For completeness - the Gibbs free enthalpy minus the electronic energy
G-E(el)                           ...      0.11916860 Eh     74.78 kcal/mol


Timings for individual modules:

Sum of individual times         ...     2174.443 sec (=  36.241 min)
GTO integral calculation        ...        6.436 sec (=   0.107 min)   0.3 %
SCF iterations                  ...      189.993 sec (=   3.167 min)   8.7 %
SCF Gradient evaluation         ...       69.750 sec (=   1.163 min)   3.2 %
Geometry relaxation             ...        0.130 sec (=   0.002 min)   0.0 %
Analytical frequency calculation...     1908.134 sec (=  31.802 min)  87.8 %
                             ****ORCA TERMINATED NORMALLY****
TOTAL RUN TIME: 0 days 0 hours 36 minutes 16 seconds 12 msec
