
                                 *****************
                                 * O   R   C   A *
                                 *****************

           --- An Ab Initio, DFT and Semiempirical electronic structure package ---

                  #######################################################
                  #                        -***-                        #
                  #  Department of molecular theory and spectroscopy    #
                  #              Directorship: Frank Neese              #
                  # Max Planck Institute for Chemical Energy Conversion #
                  #                  D-45470 Muelheim/Ruhr              #
                  #                       Germany                       #
                  #                                                     #
                  #                  All rights reserved                #
                  #                        -***-                        #
                  #######################################################


                         Program Version 3.0.3 - RELEASE   -


 With contributions from (in alphabetic order):
   Ute Becker             : Parallelization
   Dmytro Bykov           : SCF Hessian
   Dmitry Ganyushin       : Spin-Orbit,Spin-Spin,Magnetic field MRCI
   Andreas Hansen         : Spin unrestricted coupled pair/coupled cluster methods
   Dimitrios Liakos       : Extrapolation schemes; parallel MDCI
   Robert Izsak           : Overlap fitted RIJCOSX, COSX-SCS-MP3
   Christian Kollmar      : KDIIS, OOCD, Brueckner-CCSD(T), CCSD density
   Simone Kossmann        : Meta GGA functionals, TD-DFT gradient, OOMP2, MP2 Hessian
   Taras Petrenko         : DFT Hessian,TD-DFT gradient, ASA and ECA modules, normal mode analysis, Resonance Raman, ABS, FL, XAS/XES, NRVS
   Christoph Reimann      : Effective Core Potentials
   Michael Roemelt        : Restricted open shell CIS
   Christoph Riplinger    : Improved optimizer, TS searches, QM/MM, DLPNO-CCSD
   Barbara Sandhoefer     : DKH picture change effects
   Igor Schapiro          : Molecular dynamics
   Kantharuban Sivalingam : CASSCF convergence, NEVPT2
   Boris Wezisla          : Elementary symmetry handling
   Frank Wennmohs         : Technical directorship


 We gratefully acknowledge several colleagues who have allowed us to
 interface, adapt or use parts of their codes:
   Stefan Grimme, W. Hujo, H. Kruse, T. Risthaus : VdW corrections, initial TS optimization,
                                                   DFT functionals, gCP
   Ed Valeev                                     : LibInt (2-el integral package), F12 methods
   Garnet Chan, S. Sharma, R. Olivares           : DMRG
   Ulf Ekstrom                                   : XCFun DFT Library
   Mihaly Kallay                                 : mrcc  (arbitrary order and MRCC methods)
   Andreas Klamt, Michael Diedenhofen            : otool_cosmo (COSMO solvation model)
   Frank Weinhold                                : gennbo (NPA and NBO analysis)
   Christopher J. Cramer and Donald G. Truhlar   : smd solvation model


 Your calculation uses the libint2 library for the computation of 2-el integrals
 For citations please refer to: http://libint.valeyev.net

 This ORCA versions uses:
   CBLAS   interface :  Fast vector & matrix operations
   LAPACKE interface :  Fast linear algebra routines
   SCALAPACK package :  Parallel linear algebra routines


Your calculation utilizes the basis: Ahlrichs-TZV
Cite in your paper:
H - Kr: A. Schaefer, H. Horn and R. Ahlrichs, J. Chem. Phys. 97, 2571 (1992).

The def2-TZV basis will be loaded
Cite in your paper:
 	F. Weigend, R. Ahlrichs, Phys. Chem. Chem. Phys. 2005, 7, 3297.

================================================================================
                                        WARNINGS
                       Please study these warnings very carefully!
================================================================================
Now building the actual basis set
WARNING: Geometry optimizations can change the point-group symmetry!

WARNING: Geometry Optimization
  ===> : Switching off AutoStart
         For restart on a previous wavefunction, please use MOREAD


INFO   : the flag for use of LIBINT has been found!

================================================================================
                                       INPUT FILE
================================================================================
NAME = 2621_+.inp
|  1> ! NORI PBE0 def2-TZVP UseSym TightOPT Freq TightSCF Grid3 FinalGrid5 XYZFile
|  2> % pal
|  3>     nprocs 8
|  4> end
|  5> %method
|  6>     SymThresh 5.0e-2
|  7> end
|  8> % geom 
|  9>     MaxIter 10
| 10> end 
| 11> % maxcore 2000
| 12> % output
| 13>     printlevel mini
| 14>     print[ P_Basis ] 0
| 15>     print[ P_SCFInfo ] 1
| 16>     print[ P_SCFIterInfo ] 1
| 17>     print[ P_OrbEn ] 0
| 18>     print[ P_Cartesian ] 0
| 19> end
| 20> % elprop
| 21>     Dipole false
| 22> end
| 23> *xyz 1 1
| 24>  C        1.8043863309     1.0899059774    -0.1126801554 
| 25>  N        2.3145584985    -0.3045114736     0.0176141408 
| 26>  C        2.9082414818    -0.6074971175     1.3376665953 
| 27>  C        3.8788108390    -1.7325971605     1.4419334894 
| 28>  C        4.3608750259    -0.3176900812     1.5609186913 
| 29>  C        4.8007433767     0.2749055119     2.8466556588 
| 30>  C        5.2352895288    -0.4216914735     3.8854420079 
| 31>  H        1.4004299650     1.2311239915    -1.1137167493 
| 32>  H        2.6308366197     1.7739430084     0.0660011742 
| 33>  H        1.0259971824     1.2427598549     0.6320159652 
| 34>  H        3.0181690798    -0.4762854862    -0.7037651201 
| 35>  H        1.5563196605    -0.9654257692    -0.1697591477 
| 36>  H        2.1993123427    -0.4278149566     2.1364972262 
| 37>  H        4.1420898191    -2.2796029772     0.5431499385 
| 38>  H        3.8105957691    -2.3458070423     2.3308579754 
| 39>  H        4.8909319394     0.0568624463     0.6850574828 
| 40>  H        4.7649501656     1.3602058501     2.8995771068 
| 41>  H        5.3154173199    -1.5034877485     3.8656190772 
| 42>  H        5.5446850551     0.0720346457     4.7980846426 
| 43> *
| 44> 
| 45>                          ****END OF INPUT****
================================================================================

The point group is C1 - hence turning off symmetry
If this is a round-off problem, please increase the symmetry
        detection tolerance (%method SymThresh)


                       *****************************
                       * Geometry Optimization Run *
                       *****************************

Geometry optimization settings:
Update method            Update   .... BFGS
Choice of coordinates    CoordSys .... Redundant Internals
Initial Hessian          InHess   .... Almoef's Model

Convergence Tolerances:
Energy Change            TolE     ....  1.0000e-06 Eh
Max. Gradient            TolMAXG  ....  1.0000e-04 Eh/bohr
RMS Gradient             TolRMSG  ....  3.0000e-05 Eh/bohr
Max. Displacement        TolMAXD  ....  1.0000e-03 bohr
RMS Displacement         TolRMSD  ....  6.0000e-04 bohr

------------------------------------------------------------------------------
                        ORCA OPTIMIZATION COORDINATE SETUP
------------------------------------------------------------------------------

The optimization will be done in new redundant internal coordinates
Making redundant internal coordinates   ...  (new redundants) done
Evaluating the initial hessian          ...  (Almloef) done
Evaluating the coordinates              ...  done
Calculating the B-matrix                .... done
Calculating the G-matrix                .... done
Diagonalizing the G-matrix              .... done
Small eigenvalue found = 2.874e-02
The first mode is                       ....   56
The number of degrees of freedom        ....   51

    -----------------------------------------------------------------
                    Redundant Internal Coordinates


    -----------------------------------------------------------------
         Definition                    Initial Value    Approx d2E/dq
    -----------------------------------------------------------------
      1. B(N   1,C   0)                  1.4905         0.386813   
      2. B(C   2,N   1)                  1.4788         0.403858   
      3. B(C   3,C   2)                  1.4895         0.433441   
      4. B(C   4,C   3)                  1.4995         0.417865   
      5. B(C   4,C   2)                  1.4980         0.420192   
      6. B(C   5,C   4)                  1.4825         0.444814   
      7. B(C   6,C   5)                  1.3241         0.796030   
      8. B(H   7,C   0)                  1.0887         0.361867   
      9. B(H   8,C   0)                  1.0876         0.363301   
     10. B(H   9,C   0)                  1.0880         0.362705   
     11. B(H  10,N   1)                  1.0222         0.413691   
     12. B(H  11,N   1)                  1.0232         0.412297   
     13. B(H  12,C   2)                  1.0830         0.369413   
     14. B(H  13,C   3)                  1.0846         0.367324   
     15. B(H  14,C   3)                  1.0821         0.370750   
     16. B(H  15,C   4)                  1.0901         0.359928   
     17. B(H  16,C   5)                  1.0872         0.363851   
     18. B(H  17,C   6)                  1.0849         0.366855   
     19. B(H  18,C   6)                  1.0828         0.369782   
     20. A(N   1,C   0,H   9)          108.4493         0.324613   
     21. A(N   1,C   0,H   8)          108.2968         0.324701   
     22. A(H   8,C   0,H   9)          110.0491         0.291574   
     23. A(H   7,C   0,H   8)          110.5756         0.291468   
     24. A(H   7,C   0,H   9)          110.2225         0.291393   
     25. A(N   1,C   0,H   7)          109.1921         0.324490   
     26. A(C   0,N   1,H  10)          109.3360         0.328904   
     27. A(C   2,N   1,H  10)          108.6133         0.331257   
     28. A(H  10,N   1,H  11)          105.8018         0.298782   
     29. A(C   0,N   1,C   2)          114.0243         0.365831   
     30. A(C   0,N   1,H  11)          109.5510         0.328721   
     31. A(C   2,N   1,H  11)          109.1866         0.331072   
     32. A(N   1,C   2,C   4)          118.8626         0.373407   
     33. A(C   4,C   2,H  12)          119.5200         0.332067   
     34. A(C   3,C   2,H  12)          120.0128         0.333781   
     35. A(N   1,C   2,H  12)          111.2001         0.327913   
     36. A(C   3,C   2,C   4)           60.2535         0.380392   
     37. A(N   1,C   2,C   3)          118.6095         0.375412   
     38. A(H  13,C   3,H  14)          114.2211         0.293091   
     39. A(C   4,C   3,H  14)          119.3283         0.331960   
     40. A(C   2,C   3,H  14)          116.3899         0.333981   
     41. A(C   4,C   3,H  13)          117.6201         0.331450   
     42. A(C   2,C   3,H  13)          118.7579         0.333467   
     43. A(C   2,C   3,C   4)           60.1526         0.380026   
     44. A(C   3,C   4,H  15)          114.6305         0.330336   
     45. A(C   2,C   4,H  15)          114.7236         0.330640   
     46. A(C   2,C   4,C   5)          119.6245         0.382105   
     47. A(C   2,C   4,C   3)           59.5940         0.377988   
     48. A(C   3,C   4,C   5)          122.7780         0.381737   
     49. A(C   5,C   4,H  15)          114.5322         0.333775   
     50. A(C   4,C   5,C   6)          124.5759         0.427710   
     51. A(C   6,C   5,H  16)          119.8552         0.368923   
     52. A(C   4,C   5,H  16)          115.5620         0.334376   
     53. A(H  17,C   6,H  18)          116.6767         0.292911   
     54. A(C   5,C   6,H  18)          121.0077         0.369950   
     55. A(C   5,C   6,H  17)          122.3089         0.369445   
     56. D(C   2,N   1,C   0,H   8)     58.6883         0.013690   
     57. D(H  11,N   1,C   0,H   9)     61.9768         0.013690   
     58. D(C   2,N   1,C   0,H   9)    -60.7150         0.013690   
     59. D(H  11,N   1,C   0,H   7)    -58.1532         0.013690   
     60. D(C   2,N   1,C   0,H   7)    179.1549         0.013690   
     61. D(H  10,N   1,C   0,H   8)    -63.0979         0.013690   
     62. D(H  10,N   1,C   0,H   9)    177.4988         0.013690   
     63. D(H  11,N   1,C   0,H   8)   -178.6198         0.013690   
     64. D(H  10,N   1,C   0,H   7)     57.3688         0.013690   
     65. D(C   4,C   2,N   1,H  10)     34.5177         0.014903   
     66. D(C   3,C   2,N   1,H  11)     79.6065         0.014903   
     67. D(C   3,C   2,N   1,H  10)    -35.3187         0.014903   
     68. D(H  12,C   2,N   1,H  10)    179.3276         0.014903   
     69. D(C   4,C   2,N   1,H  11)    149.4430         0.014903   
     70. D(H  12,C   2,N   1,H  11)    -65.7471         0.014903   
     71. D(C   3,C   2,N   1,C   0)   -157.5028         0.014903   
     72. D(H  12,C   2,N   1,C   0)     57.1435         0.014903   
     73. D(C   4,C   2,N   1,C   0)    -87.6664         0.014903   
     74. D(H  14,C   3,C   2,H  12)      1.2421         0.014849   
     75. D(H  14,C   3,C   2,C   4)    110.2247         0.014849   
     76. D(H  14,C   3,C   2,N   1)   -141.0157         0.014849   
     77. D(H  13,C   3,C   2,H  12)    143.8715         0.014849   
     78. D(H  13,C   3,C   2,C   4)   -107.1459         0.014849   
     79. D(C   4,C   3,C   2,H  12)   -108.9826         0.014849   
     80. D(C   4,C   3,C   2,N   1)    108.7596         0.014849   
     81. D(H  13,C   3,C   2,N   1)      1.6137         0.014849   
     82. D(C   5,C   4,C   2,C   3)   -112.8557         0.013969   
     83. D(C   5,C   4,C   2,N   1)    138.7982         0.013969   
     84. D(C   3,C   4,C   2,H  12)    109.7836         0.013969   
     85. D(C   5,C   4,C   2,H  12)     -3.0721         0.013969   
     86. D(C   3,C   4,C   2,N   1)   -108.3461         0.013969   
     87. D(H  15,C   4,C   3,H  14)    149.2756         0.013818   
     88. D(H  15,C   4,C   3,H  13)      3.6809         0.013818   
     89. D(H  15,C   4,C   3,C   2)   -105.3328         0.013818   
     90. D(C   5,C   4,C   3,H  14)      2.2952         0.013818   
     91. D(C   5,C   4,C   3,H  13)   -143.2996         0.013818   
     92. D(C   5,C   4,C   3,C   2)    107.6868         0.013818   
     93. D(C   2,C   4,C   3,H  14)   -105.3916         0.013818   
     94. D(C   2,C   4,C   3,H  13)    109.0136         0.013818   
     95. D(H  15,C   4,C   2,H  12)   -145.0405         0.013969   
     96. D(H  15,C   4,C   2,C   3)    105.1759         0.013969   
     97. D(H  15,C   4,C   2,N   1)     -3.1702         0.013969   
     98. D(H  16,C   5,C   4,H  15)     55.3143         0.014595   
     99. D(H  16,C   5,C   4,C   3)   -157.6760         0.014595   
    100. D(H  16,C   5,C   4,C   2)    -86.7226         0.014595   
    101. D(C   6,C   5,C   4,H  15)   -123.7267         0.014595   
    102. D(C   6,C   5,C   4,C   3)     23.2830         0.014595   
    103. D(C   6,C   5,C   4,C   2)     94.2364         0.014595   
    104. D(H  18,C   6,C   5,H  16)      0.8768         0.045741   
    105. D(H  18,C   6,C   5,C   4)    179.8793         0.045741   
    106. D(H  17,C   6,C   5,H  16)   -178.1457         0.045741   
    107. D(H  17,C   6,C   5,C   4)      0.8568         0.045741   
    -----------------------------------------------------------------

Number of atoms                         .... 19
Number of degrees of freedom            .... 107

         *************************************************************
         *                GEOMETRY OPTIMIZATION CYCLE   1            *
         *************************************************************


           ************************************************************
           *        Program running with 8 parallel MPI-processes     *
           *              working on a common directory               *
           ************************************************************
           ************************************************************
           *              Shut down parallel processing               *
           ************************************************************


           ************************************************************
           *        Program running with 8 parallel MPI-processes     *
           *              working on a common directory               *
           ************************************************************
------------
SCF SETTINGS
------------
Hamiltonian:
 Density Functional     Method          .... DFT(GTOs)
 Exchange Functional    Exchange        .... PBE
   PBE kappa parameter  XKappa          ....  0.804000
 Correlation Functional Correlation     .... PBE
 LDA part of GGA corr.  LDAOpt          .... PW91-LDA
 Gradients option       PostSCFGGA      .... off
 Hybrid DFT is turned on
   Fraction HF Exchange ScalHFX         ....  0.250000
   Scaling of DF-GGA-X  ScalDFX         ....  0.750000
   Scaling of DF-GGA-C  ScalDFC         ....  1.000000
   Scaling of DF-LDA-C  ScalLDAC        ....  1.000000
   Perturbative correction              ....  0.000000
   NL short-range parameter             ....  6.900000


General Settings:
 Integral files         IntName         .... 2621_+
 Hartree-Fock type      HFTyp           .... RHF
 Total Charge           Charge          ....    1
 Multiplicity           Mult            ....    1
 Number of Electrons    NEL             ....   54
 Basis Dimension        Dim             ....  289
 Nuclear Repulsion      ENuc            ....    307.5391887124 Eh

Convergence Acceleration:
 DIIS                   CNVDIIS         .... on
   Start iteration      DIISMaxIt       ....    12
   Startup error        DIISStart       ....  0.200000
   # of expansion vecs  DIISMaxEq       ....     5
   Bias factor          DIISBfac        ....   1.050
   Max. coefficient     DIISMaxC        ....  10.000
 Newton-Raphson         CNVNR           .... off
 SOSCF                  CNVSOSCF        .... on
   Start iteration      SOSCFMaxIt      ....   150
   Startup grad/error   SOSCFStart      ....  0.003300
 Level Shifting         CNVShift        .... on
   Level shift para.    LevelShift      ....    0.2500
   Turn off err/grad.   ShiftErr        ....    0.0010
 Zerner damping         CNVZerner       .... off
 Static damping         CNVDamp         .... on
   Fraction old density DampFac         ....    0.7000
   Max. Damping (<1)    DampMax         ....    0.9800
   Min. Damping (>=0)   DampMin         ....    0.0000
   Turn off err/grad.   DampErr         ....    0.1000
 Fernandez-Rico         CNVRico         .... off

SCF Procedure:
 Maximum # iterations   MaxIter         ....   125
 SCF integral mode      SCFMode         .... Direct
   Integral package                     .... LIBINT
 Reset frequeny         DirectResetFreq ....    20
 Integral Threshold     Thresh          ....  2.500e-11 Eh
 Primitive CutOff       TCut            ....  2.500e-12 Eh

Convergence Tolerance:
 Convergence Check Mode ConvCheckMode   .... Total+1el-Energy
 Energy Change          TolE            ....  1.000e-08 Eh
 1-El. energy change                    ....  1.000e-05 Eh
 Orbital Gradient       TolG            ....  1.000e-05
 Orbital Rotation angle TolX            ....  1.000e-05
 DIIS Error             TolErr          ....  5.000e-07


Diagonalization of the overlap matrix:
Smallest eigenvalue                        ... 1.282e-04
Time for diagonalization                   ...    0.048 sec
Threshold for overlap eigenvalues          ... 1.000e-08
Number of eigenvalues below threshold      ... 0
Time for construction of square roots      ...    0.014 sec
Total time needed                          ...    0.062 sec

-------------------
DFT GRID GENERATION
-------------------

General Integration Accuracy     IntAcc      ...  4.340
Radial Grid Type                 RadialGrid  ... Gauss-Chebyshev
Angular Grid (max. acc.)         AngularGrid ... Lebedev-194
Angular grid pruning method      GridPruning ... 3 (G Style)
Weight generation scheme         WeightScheme... Becke
Basis function cutoff            BFCut       ...    1.0000e-11
Integration weight cutoff        WCut        ...    1.0000e-14
Grids for H and He will be reduced by one unit

# of grid points (after initial pruning)     ...  41338 (   0.0 sec)
# of grid points (after weights+screening)   ...  37768 (   0.2 sec)
nearest neighbour list constructed           ...    0.0 sec
Grid point re-assignment to atoms done       ...    0.0 sec
Grid point division into batches done        ...    0.1 sec
Reduced shell lists constructed in    0.2 sec

Total number of grid points                  ...    37768
Total number of batches                      ...      600
Average number of points per batch           ...       62
Average number of grid points per atom       ...     1988
Average number of shells per batch           ...    97.99 (78.39%)
Average number of basis functions per batch  ...   233.46 (80.78%)
Average number of large shells per batch     ...    80.76 (82.42%)
Average number of large basis fcns per batch ...   191.63 (82.08%)
Maximum spatial batch extension              ...   2.40,  2.57,  2.20 au
Average spatial batch extension              ...   0.15,  0.14,  0.15 au

Time for grid setup =    0.352 sec

Loading Hartree-Fock densities                     ... done
Calculating cut-offs                               ... done
Setting up the integral package                    ... done
Initializing the effective Hamiltonian             ... done
Starting the Coulomb interaction                   ... done (   0.0 sec)
Reading the grid                                   ... done
Mapping shells                                     ... done
Starting the XC term evaluation                    ... done (   0.3 sec)
  promolecular density results
     # of electrons  =     54.992531990
     EX              =    -40.817245854
     EC              =     -1.797276993
     EX+EC           =    -42.614522847
Transforming the Hamiltonian                       ... done (   0.0 sec)
Diagonalizing the Hamiltonian                      ... done (   0.0 sec)
Back transforming the eigenvectors                 ... done (   0.0 sec)
Now organizing SCF variables                       ... done
--------------
SCF ITERATIONS
--------------
ITER       Energy         Delta-E        Max-DP      RMS-DP      [F,P]     Damp
               ***  Starting incremental Fock matrix formation  ***
  0   -289.9006766898   0.000000000000 0.03162780  0.00082416  0.1550737 0.7000
  1   -289.9741503183  -0.073473628504 0.03033812  0.00067072  0.0825811 0.7000
                               ***Turning on DIIS***
  2   -290.0074531781  -0.033302859746 0.06022349  0.00130527  0.0326597 0.0000
  3   -290.0551064598  -0.047653281716 0.01560263  0.00041750  0.0483507 0.0000
  4   -290.0671244229  -0.012017963149 0.00486406  0.00014412  0.0076091 0.0000
                      *** Initiating the SOSCF procedure ***
                           *** Shutting down DIIS ***
                      *** Re-Reading the Fockian *** 
                      *** Removing any level shift *** 
ITER      Energy       Delta-E        Grad      Rot      Max-DP    RMS-DP
  5   -290.06756019  -0.0004357704  0.000452  0.000452  0.002339  0.000055
               *** Restarting incremental Fock matrix formation ***
  6   -290.06758796  -0.0000277692  0.000198  0.000708  0.001463  0.000035
  7   -290.06758843  -0.0000004626  0.000231  0.000211  0.000332  0.000008
  8   -290.06759150  -0.0000030797  0.000038  0.000114  0.000165  0.000004
  9   -290.06759148   0.0000000271  0.000056  0.000082  0.000080  0.000001
 10   -290.06759158  -0.0000000998  0.000013  0.000038  0.000023  0.000001
 11   -290.06759158   0.0000000014  0.000013  0.000018  0.000013  0.000000
                 **** Energy Check signals convergence ****
              ***Rediagonalizing the Fockian in SOSCF/NRSCF***

               *****************************************************
               *                     SUCCESS                       *
               *           SCF CONVERGED AFTER  12 CYCLES          *
               *****************************************************

Setting up the final grid:

General Integration Accuracy     IntAcc      ...  5.010
Radial Grid Type                 RadialGrid  ... Gauss-Chebyshev
Angular Grid (max. acc.)         AngularGrid ... Lebedev-434
Angular grid pruning method      GridPruning ... 3 (G Style)
Weight generation scheme         WeightScheme... Becke
Basis function cutoff            BFCut       ...    1.0000e-11
Integration weight cutoff        WCut        ...    1.0000e-14
Grids for H and He will be reduced by one unit

# of grid points (after initial pruning)     ... 155082 (   0.0 sec)
# of grid points (after weights+screening)   ... 139954 (   2.3 sec)
nearest neighbour list constructed           ...    0.0 sec
Grid point re-assignment to atoms done       ...    0.0 sec
Grid point division into batches done        ...    0.8 sec
Reduced shell lists constructed in    1.1 sec

Total number of grid points                  ...   139954
Total number of batches                      ...     2196
Average number of points per batch           ...       63
Average number of grid points per atom       ...     7366
Average number of shells per batch           ...    96.75 (77.40%)
Average number of basis functions per batch  ...   230.06 (79.60%)
Average number of large shells per batch     ...    78.82 (81.47%)
Average number of large basis fcns per batch ...   187.47 (81.49%)
Maximum spatial batch extension              ...   2.09,  2.81,  2.06 au
Average spatial batch extension              ...   0.10,  0.10,  0.10 au

Final grid set up in    4.0 sec
Final integration                            ... done (   1.1 sec)
Change in XC energy                          ...     0.000337739
Integrated number of electrons               ...    54.000029792
Previous integrated no of electrons          ...    53.999421341
Total Energy       :         -290.06725384 Eh           -7893.13126 eV
  Last Energy change         ...   -3.4991e-09  Tolerance :   1.0000e-08
  Last MAX-Density change    ...    2.6337e-06  Tolerance :   1.0000e-07
             **** THE GBW FILE WAS UPDATED (2621_+.gbw) ****
             **** DENSITY FILE WAS UPDATED (2621_+.scfp.tmp) ****
             **** ENERGY FILE WAS UPDATED (2621_+.en.tmp) ****
Total SCF time: 0 days 0 hours 1 min 30 sec 
           ************************************************************
           *              Shut down parallel processing               *
           ************************************************************

-------------------------   --------------------
FINAL SINGLE POINT ENERGY      -290.067253840223
-------------------------   --------------------



           ************************************************************
           *        Program running with 8 parallel MPI-processes     *
           *              working on a common directory               *
           ************************************************************
------------------------------------------------------------------------------
                         ORCA SCF GRADIENT CALCULATION
------------------------------------------------------------------------------

Gradient of the Kohn-Sham DFT energy:
Kohn-Sham wavefunction type      ... RKS
Hartree-Fock exchange scaling    ...    0.250
Number of operators              ...    1
Number of atoms                  ...   19
Basis set dimensions             ...  289
Integral neglect threshold       ... 2.5e-11
Integral primitive cutoff        ... 2.5e-12

Nuclear repulsion gradient       ... done
One Electron Gradient            ... done
Pre-screening matrix             ... done
Starting the two electron gradient:
Two electron gradient done
Exchange-correlation gradient    ... done

------------------
CARTESIAN GRADIENT
------------------

   1   C   :    0.000025445    0.000034332    0.000011560
   2   N   :    0.000035548   -0.000005284    0.000043448
   3   C   :    0.000120605   -0.000214450    0.000080472
   4   C   :    0.000003167    0.000258880   -0.000190610
   5   C   :   -0.000179600    0.000021655    0.000032131
   6   C   :    0.000044393    0.000087211    0.000129431
   7   C   :    0.000106851   -0.000098194   -0.000115205
   8   H   :    0.000017841    0.000024270    0.000001021
   9   H   :   -0.000010804    0.000009441   -0.000031184
  10   H   :    0.000004103   -0.000067603    0.000022748
  11   H   :   -0.000010055    0.000027717   -0.000039022
  12   H   :   -0.000013354   -0.000005147   -0.000018959
  13   H   :    0.000029509   -0.000033263   -0.000020839
  14   H   :    0.000010928    0.000055871    0.000088493
  15   H   :    0.000017427   -0.000100005    0.000007748
  16   H   :   -0.000090092    0.000007534    0.000005699
  17   H   :    0.000108593   -0.000003966    0.000029435
  18   H   :   -0.000130920    0.000020161   -0.000099201
  19   H   :   -0.000089586   -0.000019159    0.000062834

Norm of the cartesian gradient     ...    0.000603765
RMS gradient                       ...    0.000079971
MAX gradient                       ...    0.000258880

-------
TIMINGS
-------

Total SCF gradient time            ...       33.085 sec

One electron gradient       ....       0.115 sec  (  0.3%)
Prescreening matrices       ....       0.356 sec  (  1.1%)
Two electron gradient       ....      25.812 sec  ( 78.0%)
XC gradient                 ....       3.769 sec  ( 11.4%)
           ************************************************************
           *              Shut down parallel processing               *
           ************************************************************
------------------------------------------------------------------------------
                         ORCA GEOMETRY RELAXATION STEP
------------------------------------------------------------------------------

Reading the OPT-File                    .... done
Getting information on internals        .... done
Copying old internal coords+grads       .... done
Making the new internal coordinates     .... (new redundants).... done
Validating the new internal coordinates .... (new redundants).... done
Calculating the B-matrix                .... done
Calculating the G,G- and P matrices     .... done
Transforming gradient to internals      .... done
Projecting the internal gradient        .... done
Number of atoms                         ....  19
Number of internal coordinates          .... 107
Current Energy                          ....  -290.067253840 Eh
Current gradient norm                   ....     0.000603765 Eh/bohr
Maximum allowed component of the step   ....  0.300
Current trust radius                    ....  0.300
Evaluating the initial hessian          ....  (Almloef) done
Projecting the Hessian                  .... done
Forming the augmented Hessian           .... done
Diagonalizing the augmented Hessian     .... done
Last element of RFO vector              ....  0.999978905
Lowest eigenvalues of augmented Hessian:
 -0.000001563  0.013690018  0.014595435  0.014902644  0.027655775
Length of the computed step             ....  0.006495414
The final length of the internal step   ....  0.006495414
Converting the step to cartesian space:
 Initial RMS(Int)=    0.0006279354
Transforming coordinates:
 Iter   0:  RMS(Cart)=    0.0015227147 RMS(Int)=    0.0006279463
 Iter   1:  RMS(Cart)=    0.0000012674 RMS(Int)=    0.0000008250
 Iter   2:  RMS(Cart)=    0.0000000025 RMS(Int)=    0.0000000013
done
Storing new coordinates                 .... done

                                .--------------------.
          ----------------------|Geometry convergence|---------------------
          Item                value                 Tolerance   Converged
          -----------------------------------------------------------------
          RMS gradient        0.00004476            0.00003000      NO
          MAX gradient        0.00020516            0.00010000      NO
          RMS step            0.00062794            0.00060000      NO
          MAX step            0.00227151            0.00100000      NO
          ....................................................
          Max(Bonds)      0.0002      Max(Angles)    0.03
          Max(Dihed)        0.13      Max(Improp)    0.00
          -----------------------------------------------------------------

The optimization has not yet converged - more geometry cycles are needed


    ---------------------------------------------------------------------------
                         Redundant Internal Coordinates
                            (Angstroem and degrees)

        Definition                    Value    dE/dq     Step     New-Value
    ----------------------------------------------------------------------------
     1. B(N   1,C   0)                1.4905  0.000030 -0.0000    1.4905   
     2. B(C   2,N   1)                1.4788  0.000005 -0.0000    1.4788   
     3. B(C   3,C   2)                1.4895  0.000100 -0.0002    1.4894   
     4. B(C   4,C   3)                1.4995 -0.000083  0.0002    1.4997   
     5. B(C   4,C   2)                1.4980  0.000034 -0.0001    1.4979   
     6. B(C   5,C   4)                1.4825  0.000018 -0.0000    1.4825   
     7. B(C   6,C   5)                1.3241  0.000205 -0.0001    1.3239   
     8. B(H   7,C   0)                1.0887  0.000012 -0.0000    1.0887   
     9. B(H   8,C   0)                1.0876  0.000018 -0.0000    1.0876   
    10. B(H   9,C   0)                1.0880  0.000062 -0.0001    1.0879   
    11. B(H  10,N   1)                1.0222  0.000025 -0.0000    1.0222   
    12. B(H  11,N   1)                1.0232 -0.000000  0.0000    1.0232   
    13. B(H  12,C   2)                1.0830  0.000045 -0.0001    1.0830   
    14. B(H  13,C   3)                1.0846  0.000067 -0.0001    1.0845   
    15. B(H  14,C   3)                1.0821  0.000058 -0.0001    1.0820   
    16. B(H  15,C   4)                1.0901 -0.000005  0.0000    1.0901   
    17. B(H  16,C   5)                1.0872  0.000107 -0.0002    1.0870   
    18. B(H  17,C   6)                1.0849  0.000125 -0.0002    1.0848   
    19. B(H  18,C   6)                1.0828 -0.000092  0.0001    1.0829   
    20. A(N   1,C   0,H   9)          108.45 -0.000010    0.00    108.45   
    21. A(N   1,C   0,H   8)          108.30 -0.000042    0.01    108.30   
    22. A(H   8,C   0,H   9)          110.05  0.000027   -0.01    110.04   
    23. A(H   7,C   0,H   8)          110.58  0.000004    0.00    110.58   
    24. A(H   7,C   0,H   9)          110.22 -0.000003   -0.00    110.22   
    25. A(N   1,C   0,H   7)          109.19  0.000024   -0.00    109.19   
    26. A(C   0,N   1,H  10)          109.34  0.000019   -0.00    109.34   
    27. A(C   2,N   1,H  10)          108.61 -0.000042    0.02    108.63   
    28. A(H  10,N   1,H  11)          105.80  0.000007   -0.00    105.80   
    29. A(C   0,N   1,C   2)          114.02 -0.000000    0.00    114.03   
    30. A(C   0,N   1,H  11)          109.55  0.000010   -0.01    109.54   
    31. A(C   2,N   1,H  11)          109.19  0.000006   -0.00    109.18   
    32. A(N   1,C   2,C   4)          118.86 -0.000026    0.02    118.89   
    33. A(C   4,C   2,H  12)          119.52  0.000034   -0.00    119.52   
    34. A(C   3,C   2,H  12)          120.01  0.000035   -0.01    120.01   
    35. A(N   1,C   2,H  12)          111.20 -0.000001   -0.01    111.19   
    36. A(C   3,C   2,C   4)           60.25 -0.000062    0.01     60.27   
    37. A(N   1,C   2,C   3)          118.61 -0.000003   -0.01    118.60   
    38. A(H  13,C   3,H  14)          114.22  0.000045   -0.01    114.21   
    39. A(C   4,C   3,H  14)          119.33  0.000006   -0.01    119.31   
    40. A(C   2,C   3,H  14)          116.39 -0.000046    0.02    116.41   
    41. A(C   4,C   3,H  13)          117.62 -0.000027    0.00    117.62   
    42. A(C   2,C   3,H  13)          118.76 -0.000015    0.01    118.77   
    43. A(C   2,C   3,C   4)           60.15  0.000011   -0.00     60.15   
    44. A(C   3,C   4,H  15)          114.63 -0.000043    0.02    114.65   
    45. A(C   2,C   4,H  15)          114.72 -0.000006   -0.01    114.72   
    46. A(C   2,C   4,C   5)          119.62 -0.000060    0.03    119.65   
    47. A(C   2,C   4,C   3)           59.59  0.000051   -0.01     59.58   
    48. A(C   3,C   4,C   5)          122.78  0.000005   -0.02    122.75   
    49. A(C   5,C   4,H  15)          114.53  0.000043   -0.01    114.53   
    50. A(C   4,C   5,C   6)          124.58  0.000042   -0.01    124.57   
    51. A(C   6,C   5,H  16)          119.86  0.000006   -0.00    119.85   
    52. A(C   4,C   5,H  16)          115.56 -0.000047    0.01    115.57   
    53. A(H  17,C   6,H  18)          116.68 -0.000088    0.02    116.69   
    54. A(C   5,C   6,H  18)          121.01  0.000014   -0.00    121.00   
    55. A(C   5,C   6,H  17)          122.31  0.000074   -0.01    122.30   
    56. D(C   2,N   1,C   0,H   8)     58.69 -0.000029    0.07     58.76   
    57. D(H  11,N   1,C   0,H   9)     61.98 -0.000016    0.06     62.03   
    58. D(C   2,N   1,C   0,H   9)    -60.72 -0.000032    0.07    -60.65   
    59. D(H  11,N   1,C   0,H   7)    -58.15 -0.000020    0.06    -58.10   
    60. D(C   2,N   1,C   0,H   7)    179.15 -0.000036    0.07    179.23   
    61. D(H  10,N   1,C   0,H   8)    -63.10  0.000011    0.04    -63.05   
    62. D(H  10,N   1,C   0,H   9)    177.50  0.000009    0.05    177.54   
    63. D(H  11,N   1,C   0,H   8)   -178.62 -0.000014    0.05   -178.57   
    64. D(H  10,N   1,C   0,H   7)     57.37  0.000005    0.05     57.42   
    65. D(C   4,C   2,N   1,H  10)     34.52 -0.000040    0.02     34.54   
    66. D(C   3,C   2,N   1,H  11)     79.61  0.000034    0.00     79.61   
    67. D(C   3,C   2,N   1,H  10)    -35.32  0.000045    0.00    -35.32   
    68. D(H  12,C   2,N   1,H  10)    179.33 -0.000016    0.04    179.37   
    69. D(C   4,C   2,N   1,H  11)    149.44 -0.000050    0.03    149.47   
    70. D(H  12,C   2,N   1,H  11)    -65.75 -0.000027    0.04    -65.71   
    71. D(C   3,C   2,N   1,C   0)   -157.50  0.000052   -0.01   -157.51   
    72. D(H  12,C   2,N   1,C   0)     57.14 -0.000009    0.03     57.17   
    73. D(C   4,C   2,N   1,C   0)    -87.67 -0.000032    0.01    -87.66   
    74. D(H  14,C   3,C   2,H  12)      1.24  0.000030   -0.03      1.21   
    75. D(H  14,C   3,C   2,C   4)    110.22  0.000031   -0.03    110.20   
    76. D(H  14,C   3,C   2,N   1)   -141.02 -0.000023    0.01   -141.01   
    77. D(H  13,C   3,C   2,H  12)    143.87  0.000021   -0.00    143.87   
    78. D(H  13,C   3,C   2,C   4)   -107.15  0.000022    0.00   -107.14   
    79. D(C   4,C   3,C   2,H  12)   -108.98 -0.000001   -0.00   -108.99   
    80. D(C   4,C   3,C   2,N   1)    108.76 -0.000054    0.04    108.80   
    81. D(H  13,C   3,C   2,N   1)      1.61 -0.000031    0.04      1.65   
    82. D(C   5,C   4,C   2,C   3)   -112.86 -0.000049    0.05   -112.81   
    83. D(C   5,C   4,C   2,N   1)    138.80 -0.000033    0.06    138.86   
    84. D(C   3,C   4,C   2,H  12)    109.78  0.000005   -0.00    109.78   
    85. D(C   5,C   4,C   2,H  12)     -3.07 -0.000044    0.04     -3.03   
    86. D(C   3,C   4,C   2,N   1)   -108.35  0.000016    0.01   -108.33   
    87. D(H  15,C   4,C   3,H  14)    149.28  0.000025   -0.01    149.26   
    88. D(H  15,C   4,C   3,H  13)      3.68 -0.000032    0.03      3.71   
    89. D(H  15,C   4,C   3,C   2)   -105.33 -0.000030    0.02   -105.31   
    90. D(C   5,C   4,C   3,H  14)      2.30  0.000002    0.01      2.30   
    91. D(C   5,C   4,C   3,H  13)   -143.30 -0.000055    0.05   -143.25   
    92. D(C   5,C   4,C   3,C   2)    107.69 -0.000052    0.04    107.73   
    93. D(C   2,C   4,C   3,H  14)   -105.39  0.000055   -0.03   -105.42   
    94. D(C   2,C   4,C   3,H  13)    109.01 -0.000002    0.01    109.03   
    95. D(H  15,C   4,C   2,H  12)   -145.04 -0.000028    0.02   -145.02   
    96. D(H  15,C   4,C   2,C   3)    105.18 -0.000033    0.02    105.20   
    97. D(H  15,C   4,C   2,N   1)     -3.17 -0.000017    0.04     -3.13   
    98. D(H  16,C   5,C   4,H  15)     55.31  0.000027   -0.11     55.21   
    99. D(H  16,C   5,C   4,C   3)   -157.68  0.000023   -0.12   -157.80   
   100. D(H  16,C   5,C   4,C   2)    -86.72  0.000060   -0.13    -86.85   
   101. D(C   6,C   5,C   4,H  15)   -123.73  0.000001   -0.06   -123.78   
   102. D(C   6,C   5,C   4,C   3)     23.28 -0.000002   -0.07     23.21   
   103. D(C   6,C   5,C   4,C   2)     94.24  0.000034   -0.08     94.16   
   104. D(H  18,C   6,C   5,H  16)      0.88  0.000008    0.00      0.88   
   105. D(H  18,C   6,C   5,C   4)    179.88  0.000034   -0.05    179.83   
   106. D(H  17,C   6,C   5,H  16)   -178.15  0.000047   -0.05   -178.19   
   107. D(H  17,C   6,C   5,C   4)      0.86  0.000073   -0.10      0.75   
    ----------------------------------------------------------------------------

         *************************************************************
         *                GEOMETRY OPTIMIZATION CYCLE   2            *
         *************************************************************
---------------------------------
CARTESIAN COORDINATES (ANGSTROEM)
---------------------------------
  C      1.433644   -0.000063    2.347101
  N     -0.000151   -0.000019    1.939960
  C     -0.231409   -0.449360    0.550215
  C     -1.485709   -0.030718   -0.135106
  C     -0.172677    0.559291   -0.555668
  C      0.491601    0.208590   -1.833735
  C     -0.133237   -0.268821   -2.898841
  H      1.514285    0.355077    3.373032
  H      1.980433    0.654230    1.672032
  H      1.813409   -1.016665    2.270105
  H     -0.382179    0.942121    2.046380
  H     -0.537263   -0.592151    2.578501
  H      0.168638   -1.442629    0.388248
  H     -2.179770    0.613006    0.394074
  H     -1.959924   -0.771238   -0.765531
  H     -0.009793    1.586142   -0.227883
  H      1.563934    0.383261   -1.868511
  H     -1.205646   -0.430985   -2.917461
  H      0.410031   -0.503362   -3.805782

----------------------------
CARTESIAN COORDINATES (A.U.)
----------------------------
  NO LB      ZA    FRAG    MASS        X           Y           Z
   0 C     6.0000    0    12.011          2.709193994829468         -0.000118183289945          4.435378551796803
   1 N     7.0000    0    14.007         -0.000284896986540         -0.000035833557430          3.665992857278067
   2 C     6.0000    0    12.011         -0.437299687085248         -0.849166784792505          1.039756454092844
   3 C     6.0000    0    12.011         -2.807582797341630         -0.058048435407356         -0.255313864927314
   4 C     6.0000    0    12.011         -0.326312021557044          1.056907062336664         -1.050061015346820
   5 C     6.0000    0    12.011          0.928990601812666          0.394178364026190         -3.465256388241775
   6 C     6.0000    0    12.011         -0.251780881244003         -0.507997595883405         -5.478014956792809
   7 H     1.0000    0     1.008          2.861584681925661          0.670998817214523          6.374106350899081
   8 H     1.0000    0     1.008          3.742476917965794          1.236315841652884          3.159683053037277
   9 H     1.0000    0     1.008          3.426845521739124         -1.921218720512054          4.289876312743872
  10 H     1.0000    0     1.008         -0.722212948590200          1.780349732843983          3.867098597473992
  11 H     1.0000    0     1.008         -1.015279594719438         -1.119002383411709          4.872659856944277
  12 H     1.0000    0     1.008          0.318680007680206         -2.726174397726731          0.733681794144632
  13 H     1.0000    0     1.008         -4.119168500304064          1.158412801389711          0.744692130498210
  14 H     1.0000    0     1.008         -3.703720357041310         -1.457428246968070         -1.446644383841985
  15 H     1.0000    0     1.008         -0.018505438161803          2.997373765179293         -0.430635784406705
  16 H     1.0000    0     1.008          2.955407891967949          0.724258091278352         -3.530974933676040
  17 H     1.0000    0     1.008         -2.278340574048772         -0.814443565168186         -5.513203061243706
  18 H     1.0000    0     1.008          0.774845906123404         -0.951215637946909         -7.191886615070882

--------------------------------
INTERNAL COORDINATES (ANGSTROEM)
--------------------------------
 C      0   0   0   0.000000     0.000     0.000
 N      1   0   0   1.490480     0.000     0.000
 C      2   1   0   1.478776   114.026     0.000
 C      3   2   1   1.489361   118.603   202.486
 C      3   2   1   1.497934   118.887   272.345
 C      5   3   2   1.482467   119.654   138.857
 C      6   5   3   1.323931   124.570    94.159
 H      1   2   3   1.088651   109.188   179.225
 H      1   2   3   1.087564   108.305    58.755
 H      1   2   3   1.087948   108.450   299.353
 H      2   1   3   1.022202   109.336   238.191
 H      2   1   3   1.023154   109.542   122.680
 H      3   2   1   1.082985   111.191    57.170
 H      4   3   2   1.084497   118.770     1.654
 H      4   3   2   1.081982   116.413   218.995
 H      5   3   2   1.090136   114.717   356.867
 H      6   5   3   1.087023   115.569   273.147
 H      7   6   5   1.084761   122.296     0.754
 H      7   6   5   1.082909   121.005   179.826

---------------------------
INTERNAL COORDINATES (A.U.)
---------------------------
 C      0   0   0   0.000000     0.000     0.000
 N      1   0   0   2.816599     0.000     0.000
 C      2   1   0   2.794481   114.026     0.000
 C      3   2   1   2.814484   118.603   202.486
 C      3   2   1   2.830684   118.887   272.345
 C      5   3   2   2.801457   119.654   138.857
 C      6   5   3   2.501867   124.570    94.159
 H      1   2   3   2.057252   109.188   179.225
 H      1   2   3   2.055199   108.305    58.755
 H      1   2   3   2.055924   108.450   299.353
 H      2   1   3   1.931682   109.336   238.191
 H      2   1   3   1.933480   109.542   122.680
 H      3   2   1   2.046545   111.191    57.170
 H      4   3   2   2.049402   118.770     1.654
 H      4   3   2   2.044650   116.413   218.995
 H      5   3   2   2.060059   114.717   356.867
 H      6   5   3   2.054176   115.569   273.147
 H      7   6   5   2.049900   122.296     0.754
 H      7   6   5   2.046402   121.005   179.826



           ************************************************************
           *        Program running with 8 parallel MPI-processes     *
           *              working on a common directory               *
           ************************************************************
           ************************************************************
           *              Shut down parallel processing               *
           ************************************************************


           ************************************************************
           *        Program running with 8 parallel MPI-processes     *
           *              working on a common directory               *
           ************************************************************

Diagonalization of the overlap matrix:
Smallest eigenvalue                        ... 1.280e-04
Time for diagonalization                   ...    0.039 sec
Threshold for overlap eigenvalues          ... 1.000e-08
Number of eigenvalues below threshold      ... 0
Time for construction of square roots      ...    0.010 sec
Total time needed                          ...    0.049 sec

-------------------
DFT GRID GENERATION
-------------------

General Integration Accuracy     IntAcc      ...  4.340
Radial Grid Type                 RadialGrid  ... Gauss-Chebyshev
Angular Grid (max. acc.)         AngularGrid ... Lebedev-194
Angular grid pruning method      GridPruning ... 3 (G Style)
Weight generation scheme         WeightScheme... Becke
Basis function cutoff            BFCut       ...    1.0000e-11
Integration weight cutoff        WCut        ...    1.0000e-14
Grids for H and He will be reduced by one unit

# of grid points (after initial pruning)     ...  41338 (   0.0 sec)
# of grid points (after weights+screening)   ...  37769 (   0.2 sec)
nearest neighbour list constructed           ...    0.0 sec
Grid point re-assignment to atoms done       ...    0.0 sec
Grid point division into batches done        ...    0.1 sec
Reduced shell lists constructed in    0.1 sec

Total number of grid points                  ...    37769
Total number of batches                      ...      600
Average number of points per batch           ...       62
Average number of grid points per atom       ...     1988
Average number of shells per batch           ...    97.87 (78.29%)
Average number of basis functions per batch  ...   233.00 (80.62%)
Average number of large shells per batch     ...    80.72 (82.48%)
Average number of large basis fcns per batch ...   191.59 (82.23%)
Maximum spatial batch extension              ...   2.40,  2.42,  2.20 au
Average spatial batch extension              ...   0.15,  0.14,  0.15 au

Time for grid setup =    0.421 sec

--------------
SCF ITERATIONS
--------------
ITER       Energy         Delta-E        Max-DP      RMS-DP      [F,P]     Damp
               ***  Starting incremental Fock matrix formation  ***
                      *** Initiating the SOSCF procedure ***
                      *** Re-Reading the Fockian *** 
                      *** Removing any level shift *** 
ITER      Energy       Delta-E        Grad      Rot      Max-DP    RMS-DP
  0   -290.06759212 -290.0675921236  0.000121  0.000121  0.000204  0.000006
               *** Restarting incremental Fock matrix formation ***
  1   -290.06759404  -0.0000019141  0.000063  0.000179  0.000137  0.000003
  2   -290.06759429  -0.0000002537  0.000011  0.000045  0.000037  0.000001
  3   -290.06759430  -0.0000000046  0.000013  0.000024  0.000016  0.000000
  4   -290.06759430  -0.0000000051  0.000006  0.000012  0.000011  0.000000
  5   -290.06759430   0.0000000012  0.000004  0.000005  0.000005  0.000000
                  ***Gradient check signals convergence***
              ***Rediagonalizing the Fockian in SOSCF/NRSCF***

               *****************************************************
               *                     SUCCESS                       *
               *           SCF CONVERGED AFTER   6 CYCLES          *
               *****************************************************

Setting up the final grid:

General Integration Accuracy     IntAcc      ...  5.010
Radial Grid Type                 RadialGrid  ... Gauss-Chebyshev
Angular Grid (max. acc.)         AngularGrid ... Lebedev-434
Angular grid pruning method      GridPruning ... 3 (G Style)
Weight generation scheme         WeightScheme... Becke
Basis function cutoff            BFCut       ...    1.0000e-11
Integration weight cutoff        WCut        ...    1.0000e-14
Grids for H and He will be reduced by one unit

# of grid points (after initial pruning)     ... 155082 (   0.0 sec)
# of grid points (after weights+screening)   ... 139954 (   1.5 sec)
nearest neighbour list constructed           ...    0.0 sec
Grid point re-assignment to atoms done       ...    0.0 sec
Grid point division into batches done        ...    0.9 sec
Reduced shell lists constructed in    1.2 sec

Total number of grid points                  ...   139954
Total number of batches                      ...     2196
Average number of points per batch           ...       63
Average number of grid points per atom       ...     7366
Average number of shells per batch           ...    96.72 (77.38%)
Average number of basis functions per batch  ...   230.03 (79.59%)
Average number of large shells per batch     ...    78.80 (81.47%)
Average number of large basis fcns per batch ...   187.41 (81.47%)
Maximum spatial batch extension              ...   2.09,  2.81,  2.06 au
Average spatial batch extension              ...   0.09,  0.10,  0.10 au

Final grid set up in    3.2 sec
Final integration                            ... done (   1.0 sec)
Change in XC energy                          ...     0.000339315
Integrated number of electrons               ...    54.000030533
Previous integrated no of electrons          ...    53.999434370
Total Energy       :         -290.06725498 Eh           -7893.13129 eV
  Last Energy change         ...   -9.1916e-11  Tolerance :   1.0000e-08
  Last MAX-Density change    ...    9.6481e-07  Tolerance :   1.0000e-07
             **** THE GBW FILE WAS UPDATED (2621_+.gbw) ****
             **** DENSITY FILE WAS UPDATED (2621_+.scfp.tmp) ****
             **** ENERGY FILE WAS UPDATED (2621_+.en.tmp) ****
Total SCF time: 0 days 0 hours 0 min 42 sec 
           ************************************************************
           *              Shut down parallel processing               *
           ************************************************************

-------------------------   --------------------
FINAL SINGLE POINT ENERGY      -290.067254984725
-------------------------   --------------------



           ************************************************************
           *        Program running with 8 parallel MPI-processes     *
           *              working on a common directory               *
           ************************************************************
------------------------------------------------------------------------------
                         ORCA SCF GRADIENT CALCULATION
------------------------------------------------------------------------------

Gradient of the Kohn-Sham DFT energy:
Kohn-Sham wavefunction type      ... RKS
Hartree-Fock exchange scaling    ...    0.250
Number of operators              ...    1
Number of atoms                  ...   19
Basis set dimensions             ...  289
Integral neglect threshold       ... 2.5e-11
Integral primitive cutoff        ... 2.5e-12

Nuclear repulsion gradient       ... done
One Electron Gradient            ... done
Pre-screening matrix             ... done
Starting the two electron gradient:
Two electron gradient done
Exchange-correlation gradient    ... done

------------------
CARTESIAN GRADIENT
------------------

   1   C   :    0.000024677   -0.000007843   -0.000002556
   2   N   :    0.000001117    0.000008436    0.000039672
   3   C   :    0.000107685   -0.000126516    0.000052942
   4   C   :   -0.000047309    0.000141393   -0.000120963
   5   C   :   -0.000091968    0.000019110   -0.000021208
   6   C   :    0.000024986    0.000003595    0.000011991
   7   C   :    0.000009360    0.000014780    0.000038479
   8   H   :    0.000009031    0.000015396   -0.000008254
   9   H   :   -0.000011436   -0.000005694   -0.000017181
  10   H   :   -0.000011422   -0.000007516    0.000021203
  11   H   :    0.000002437   -0.000000726   -0.000020258
  12   H   :   -0.000002155   -0.000001297   -0.000006400
  13   H   :    0.000004490    0.000014000   -0.000016629
  14   H   :    0.000038265    0.000011731    0.000038767
  15   H   :    0.000025691   -0.000039162    0.000020794
  16   H   :   -0.000051904    0.000008598    0.000018323
  17   H   :    0.000007127   -0.000028010    0.000022698
  18   H   :   -0.000010191    0.000000460   -0.000039069
  19   H   :   -0.000028482   -0.000020736   -0.000012351

Norm of the cartesian gradient     ...    0.000311576
RMS gradient                       ...    0.000041269
MAX gradient                       ...    0.000141393

-------
TIMINGS
-------

Total SCF gradient time            ...       32.847 sec

One electron gradient       ....       0.227 sec  (  0.7%)
Prescreening matrices       ....       0.292 sec  (  0.9%)
Two electron gradient       ....      27.005 sec  ( 82.2%)
XC gradient                 ....       3.766 sec  ( 11.5%)
           ************************************************************
           *              Shut down parallel processing               *
           ************************************************************
------------------------------------------------------------------------------
                         ORCA GEOMETRY RELAXATION STEP
------------------------------------------------------------------------------

Reading the OPT-File                    .... done
Getting information on internals        .... done
Copying old internal coords+grads       .... done
Making the new internal coordinates     .... (new redundants).... done
Validating the new internal coordinates .... (new redundants).... done
Calculating the B-matrix                .... done
Calculating the G,G- and P matrices     .... done
Transforming gradient to internals      .... done
Projecting the internal gradient        .... done
Number of atoms                         ....  19
Number of internal coordinates          .... 107
Current Energy                          ....  -290.067254985 Eh
Current gradient norm                   ....     0.000311576 Eh/bohr
Maximum allowed component of the step   ....  0.300
Current trust radius                    ....  0.300
Updating the Hessian (BFGS)             .... done
Forming the augmented Hessian           .... done
Diagonalizing the augmented Hessian     .... done
Last element of RFO vector              ....  0.999956761
Lowest eigenvalues of augmented Hessian:
 -0.000000987  0.008958075  0.014073595  0.014887628  0.027094326
Length of the computed step             ....  0.009299648
The final length of the internal step   ....  0.009299648
Converting the step to cartesian space:
 Initial RMS(Int)=    0.0008990309
Transforming coordinates:
 Iter   0:  RMS(Cart)=    0.0019406445 RMS(Int)=    0.0008990606
 Iter   1:  RMS(Cart)=    0.0000021405 RMS(Int)=    0.0000013973
 Iter   2:  RMS(Cart)=    0.0000000051 RMS(Int)=    0.0000000028
done
Storing new coordinates                 .... done

                                .--------------------.
          ----------------------|Geometry convergence|---------------------
          Item                value                 Tolerance   Converged
          -----------------------------------------------------------------
          Energy change      -0.00000114            0.00000100      NO
          RMS gradient        0.00001866            0.00003000      YES
          MAX gradient        0.00006046            0.00010000      YES
          RMS step            0.00089903            0.00060000      NO
          MAX step            0.00323935            0.00100000      NO
          ....................................................
          Max(Bonds)      0.0002      Max(Angles)    0.03
          Max(Dihed)        0.19      Max(Improp)    0.00
          -----------------------------------------------------------------

The optimization has not yet converged - more geometry cycles are needed


    ---------------------------------------------------------------------------
                         Redundant Internal Coordinates
                            (Angstroem and degrees)

        Definition                    Value    dE/dq     Step     New-Value
    ----------------------------------------------------------------------------
     1. B(N   1,C   0)                1.4905  0.000002 -0.0000    1.4905   
     2. B(C   2,N   1)                1.4788  0.000010 -0.0000    1.4787   
     3. B(C   3,C   2)                1.4894  0.000060 -0.0002    1.4891   
     4. B(C   4,C   3)                1.4997 -0.000049  0.0002    1.4999   
     5. B(C   4,C   2)                1.4979  0.000020 -0.0001    1.4979   
     6. B(C   5,C   4)                1.4825 -0.000007  0.0000    1.4825   
     7. B(C   6,C   5)                1.3239  0.000021 -0.0001    1.3239   
     8. B(H   7,C   0)                1.0887 -0.000001 -0.0000    1.0886   
     9. B(H   8,C   0)                1.0876  0.000000 -0.0000    1.0876   
    10. B(H   9,C   0)                1.0879  0.000000 -0.0000    1.0879   
    11. B(H  10,N   1)                1.0222 -0.000004  0.0000    1.0222   
    12. B(H  11,N   1)                1.0232 -0.000001  0.0000    1.0232   
    13. B(H  12,C   2)                1.0830 -0.000008  0.0000    1.0830   
    14. B(H  13,C   3)                1.0845 -0.000001 -0.0000    1.0845   
    15. B(H  14,C   3)                1.0820  0.000006 -0.0000    1.0819   
    16. B(H  15,C   4)                1.0901  0.000006 -0.0000    1.0901   
    17. B(H  16,C   5)                1.0870  0.000004 -0.0000    1.0870   
    18. B(H  17,C   6)                1.0848  0.000007 -0.0001    1.0847   
    19. B(H  18,C   6)                1.0829  0.000002  0.0000    1.0829   
    20. A(N   1,C   0,H   9)          108.45 -0.000005    0.00    108.45   
    21. A(N   1,C   0,H   8)          108.30 -0.000027    0.01    108.32   
    22. A(H   8,C   0,H   9)          110.04  0.000017   -0.01    110.04   
    23. A(H   7,C   0,H   8)          110.58  0.000005   -0.00    110.58   
    24. A(H   7,C   0,H   9)          110.22 -0.000001   -0.00    110.22   
    25. A(N   1,C   0,H   7)          109.19  0.000010   -0.00    109.18   
    26. A(C   0,N   1,H  10)          109.34  0.000015   -0.00    109.34   
    27. A(C   2,N   1,H  10)          108.63 -0.000024    0.02    108.65   
    28. A(H  10,N   1,H  11)          105.80  0.000002   -0.01    105.79   
    29. A(C   0,N   1,C   2)          114.03 -0.000010    0.00    114.03   
    30. A(C   0,N   1,H  11)          109.54  0.000003   -0.01    109.53   
    31. A(C   2,N   1,H  11)          109.18  0.000014   -0.01    109.17   
    32. A(N   1,C   2,C   4)          118.89 -0.000009    0.02    118.91   
    33. A(C   4,C   2,H  12)          119.52  0.000013   -0.00    119.52   
    34. A(C   3,C   2,H  12)          120.01  0.000015   -0.01    120.00   
    35. A(N   1,C   2,H  12)          111.19  0.000004   -0.01    111.18   
    36. A(C   3,C   2,C   4)           60.27 -0.000037    0.02     60.28   
    37. A(N   1,C   2,C   3)          118.60 -0.000002   -0.00    118.60   
    38. A(H  13,C   3,H  14)          114.21  0.000030   -0.02    114.19   
    39. A(C   4,C   3,H  14)          119.31  0.000000   -0.02    119.30   
    40. A(C   2,C   3,H  14)          116.41 -0.000025    0.03    116.44   
    41. A(C   4,C   3,H  13)          117.62 -0.000015    0.00    117.63   
    42. A(C   2,C   3,H  13)          118.77 -0.000014    0.02    118.79   
    43. A(C   2,C   3,C   4)           60.15  0.000006   -0.00     60.15   
    44. A(C   3,C   4,H  15)          114.65 -0.000027    0.02    114.67   
    45. A(C   2,C   4,H  15)          114.72 -0.000011   -0.00    114.72   
    46. A(C   2,C   4,C   5)          119.65 -0.000035    0.03    119.69   
    47. A(C   2,C   4,C   3)           59.58  0.000031   -0.01     59.57   
    48. A(C   3,C   4,C   5)          122.75 -0.000008   -0.02    122.73   
    49. A(C   5,C   4,H  15)          114.53  0.000037   -0.01    114.51   
    50. A(C   4,C   5,C   6)          124.57  0.000004   -0.00    124.57   
    51. A(C   6,C   5,H  16)          119.85  0.000013   -0.00    119.85   
    52. A(C   4,C   5,H  16)          115.57 -0.000017    0.01    115.58   
    53. A(H  17,C   6,H  18)          116.69 -0.000047    0.02    116.71   
    54. A(C   5,C   6,H  18)          121.00  0.000017   -0.01    121.00   
    55. A(C   5,C   6,H  17)          122.30  0.000030   -0.01    122.28   
    56. D(C   2,N   1,C   0,H   8)     58.76 -0.000023    0.12     58.87   
    57. D(H  11,N   1,C   0,H   9)     62.03 -0.000011    0.10     62.13   
    58. D(C   2,N   1,C   0,H   9)    -60.65 -0.000025    0.12    -60.53   
    59. D(H  11,N   1,C   0,H   7)    -58.10 -0.000013    0.10    -57.99   
    60. D(C   2,N   1,C   0,H   7)    179.23 -0.000026    0.12    179.35   
    61. D(H  10,N   1,C   0,H   8)    -63.05  0.000003    0.08    -62.97   
    62. D(H  10,N   1,C   0,H   9)    177.54  0.000002    0.09    177.63   
    63. D(H  11,N   1,C   0,H   8)   -178.57 -0.000009    0.10   -178.47   
    64. D(H  10,N   1,C   0,H   7)     57.42 -0.000000    0.09     57.51   
    65. D(C   4,C   2,N   1,H  10)     34.54 -0.000026    0.04     34.59   
    66. D(C   3,C   2,N   1,H  11)     79.61  0.000020    0.01     79.62   
    67. D(C   3,C   2,N   1,H  10)    -35.32  0.000022    0.01    -35.30   
    68. D(H  12,C   2,N   1,H  10)    179.37 -0.000010    0.06    179.42   
    69. D(C   4,C   2,N   1,H  11)    149.47 -0.000029    0.04    149.51   
    70. D(H  12,C   2,N   1,H  11)    -65.71 -0.000012    0.05    -65.65   
    71. D(C   3,C   2,N   1,C   0)   -157.51  0.000027   -0.00   -157.52   
    72. D(H  12,C   2,N   1,C   0)     57.17 -0.000005    0.04     57.21   
    73. D(C   4,C   2,N   1,C   0)    -87.66 -0.000021    0.02    -87.63   
    74. D(H  14,C   3,C   2,H  12)      1.21  0.000018   -0.04      1.17   
    75. D(H  14,C   3,C   2,C   4)    110.20  0.000013   -0.03    110.16   
    76. D(H  14,C   3,C   2,N   1)   -141.01 -0.000011    0.00   -141.00   
    77. D(H  13,C   3,C   2,H  12)    143.87  0.000015   -0.00    143.87   
    78. D(H  13,C   3,C   2,C   4)   -107.14  0.000010    0.01   -107.14   
    79. D(C   4,C   3,C   2,H  12)   -108.99  0.000005   -0.01   -109.00   
    80. D(C   4,C   3,C   2,N   1)    108.80 -0.000024    0.04    108.83   
    81. D(H  13,C   3,C   2,N   1)      1.65 -0.000014    0.04      1.70   
    82. D(C   5,C   4,C   2,C   3)   -112.81 -0.000016    0.04   -112.77   
    83. D(C   5,C   4,C   2,N   1)    138.86 -0.000003    0.05    138.91   
    84. D(C   3,C   4,C   2,H  12)    109.78 -0.000001   -0.00    109.78   
    85. D(C   5,C   4,C   2,H  12)     -3.03 -0.000017    0.04     -2.99   
    86. D(C   3,C   4,C   2,N   1)   -108.33  0.000013    0.01   -108.33   
    87. D(H  15,C   4,C   3,H  14)    149.26  0.000020   -0.02    149.24   
    88. D(H  15,C   4,C   3,H  13)      3.71 -0.000017    0.04      3.75   
    89. D(H  15,C   4,C   3,C   2)   -105.31 -0.000009    0.02   -105.29   
    90. D(C   5,C   4,C   3,H  14)      2.30  0.000003    0.00      2.30   
    91. D(C   5,C   4,C   3,H  13)   -143.25 -0.000034    0.07   -143.18   
    92. D(C   5,C   4,C   3,C   2)    107.73 -0.000026    0.04    107.77   
    93. D(C   2,C   4,C   3,H  14)   -105.42  0.000029   -0.04   -105.47   
    94. D(C   2,C   4,C   3,H  13)    109.03 -0.000008    0.02    109.05   
    95. D(H  15,C   4,C   2,H  12)   -145.02 -0.000018    0.02   -145.00   
    96. D(H  15,C   4,C   2,C   3)    105.20 -0.000017    0.02    105.22   
    97. D(H  15,C   4,C   2,N   1)     -3.13 -0.000004    0.03     -3.10   
    98. D(H  16,C   5,C   4,H  15)     55.21  0.000018   -0.16     55.04   
    99. D(H  16,C   5,C   4,C   3)   -157.80  0.000016   -0.18   -157.97   
   100. D(H  16,C   5,C   4,C   2)    -86.85  0.000035   -0.19    -87.04   
   101. D(C   6,C   5,C   4,H  15)   -123.78  0.000007   -0.11   -123.89   
   102. D(C   6,C   5,C   4,C   3)     23.21  0.000004   -0.12     23.09   
   103. D(C   6,C   5,C   4,C   2)     94.16  0.000023   -0.13     94.03   
   104. D(H  18,C   6,C   5,H  16)      0.88  0.000002    0.00      0.88   
   105. D(H  18,C   6,C   5,C   4)    179.83  0.000014   -0.05    179.77   
   106. D(H  17,C   6,C   5,H  16)   -178.19  0.000007   -0.02   -178.21   
   107. D(H  17,C   6,C   5,C   4)      0.75  0.000019   -0.08      0.68   
    ----------------------------------------------------------------------------

         *************************************************************
         *                GEOMETRY OPTIMIZATION CYCLE   3            *
         *************************************************************
---------------------------------
CARTESIAN COORDINATES (ANGSTROEM)
---------------------------------
  C      1.433335   -0.000185    2.347617
  N     -0.000309   -0.000034    1.939996
  C     -0.231208   -0.448906    0.550069
  C     -1.485192   -0.030158   -0.135259
  C     -0.171765    0.559512   -0.555884
  C      0.491667    0.208795   -1.834398
  C     -0.133695   -0.269959   -2.898524
  H      1.513349    0.352602    3.374406
  H      1.980153    0.655910    1.674333
  H      1.813734   -1.016359    2.268400
  H     -0.382526    0.941956    2.047093
  H     -0.537424   -0.592671    2.578068
  H      0.168401   -1.442396    0.388317
  H     -2.179289    0.613896    0.393434
  H     -1.959644   -0.770105   -0.766122
  H     -0.008097    1.586253   -0.228193
  H      1.563564    0.385539   -1.870780
  H     -1.205728   -0.434397   -2.915308
  H      0.408892   -0.503585   -3.806136

----------------------------
CARTESIAN COORDINATES (A.U.)
----------------------------
  NO LB      ZA    FRAG    MASS        X           Y           Z
   0 C     6.0000    0    12.011          2.708609778337293         -0.000350349209633          4.436353097745895
   1 N     7.0000    0    14.007         -0.000583734586329         -0.000063838501546          3.666061287226964
   2 C     6.0000    0    12.011         -0.436920535345939         -0.848310246807199          1.039479973715980
   3 C     6.0000    0    12.011         -2.806606746323765         -0.056989645089540         -0.255601657035704
   4 C     6.0000    0    12.011         -0.324588490392593          1.057324964508325         -1.050469148656871
   5 C     6.0000    0    12.011          0.929116750765363          0.394564461341380         -3.466509452108185
   6 C     6.0000    0    12.011         -0.252646040796158         -0.510148846899084         -5.477416184666698
   7 H     1.0000    0     1.008          2.859815813359423          0.666321424373358          6.376704019029146
   8 H     1.0000    0     1.008          3.741946830096329          1.239490312356503          3.164029969162219
   9 H     1.0000    0     1.008          3.427461342415603         -1.920639708783291          4.286654010934024
  10 H     1.0000    0     1.008         -0.722870311854937          1.780037990211948          3.868445389865939
  11 H     1.0000    0     1.008         -1.015583667051302         -1.119985587465653          4.871841918360080
  12 H     1.0000    0     1.008          0.318231981493243         -2.725732555865002          0.733813168838974
  13 H     1.0000    0     1.008         -4.118259978620246          1.160095894058300          0.743482365786370
  14 H     1.0000    0     1.008         -3.703189804550346         -1.455286668849044         -1.447761540358579
  15 H     1.0000    0     1.008         -0.015301657779050          2.997583049953683         -0.431222567912245
  16 H     1.0000    0     1.008          2.954708202926332          0.728562530896991         -3.535261092503079
  17 H     1.0000    0     1.008         -2.278496513853944         -0.820890948851319         -5.509133749756818
  18 H     1.0000    0     1.008          0.772694608725244         -0.951637540121877         -7.192554852306391

--------------------------------
INTERNAL COORDINATES (ANGSTROEM)
--------------------------------
 C      0   0   0   0.000000     0.000     0.000
 N      1   0   0   1.490466     0.000     0.000
 C      2   1   0   1.478749   114.030     0.000
 C      3   2   1   1.489127   118.601   202.481
 C      3   2   1   1.497857   118.911   272.369
 C      5   3   2   1.482478   119.687   138.906
 C      6   5   3   1.323876   124.567    94.031
 H      1   2   3   1.088650   109.184   179.346
 H      1   2   3   1.087558   108.316    58.872
 H      1   2   3   1.087928   108.452   299.472
 H      2   1   3   1.022205   109.336   238.160
 H      2   1   3   1.023155   109.532   122.661
 H      3   2   1   1.082992   111.176    57.207
 H      4   3   2   1.084478   118.790     1.697
 H      4   3   2   1.081949   116.443   218.997
 H      5   3   2   1.090121   114.715   356.897
 H      6   5   3   1.086980   115.576   272.962
 H      7   6   5   1.084702   122.284     0.678
 H      7   6   5   1.082932   120.998   179.771

---------------------------
INTERNAL COORDINATES (A.U.)
---------------------------
 C      0   0   0   0.000000     0.000     0.000
 N      1   0   0   2.816572     0.000     0.000
 C      2   1   0   2.794430   114.030     0.000
 C      3   2   1   2.814043   118.601   202.481
 C      3   2   1   2.830539   118.911   272.369
 C      5   3   2   2.801478   119.687   138.906
 C      6   5   3   2.501762   124.567    94.031
 H      1   2   3   2.057250   109.184   179.346
 H      1   2   3   2.055188   108.316    58.872
 H      1   2   3   2.055886   108.452   299.472
 H      2   1   3   1.931688   109.336   238.160
 H      2   1   3   1.933483   109.532   122.661
 H      3   2   1   2.046559   111.176    57.207
 H      4   3   2   2.049366   118.790     1.697
 H      4   3   2   2.044588   116.443   218.997
 H      5   3   2   2.060031   114.715   356.897
 H      6   5   3   2.054094   115.576   272.962
 H      7   6   5   2.049789   122.284     0.678
 H      7   6   5   2.046445   120.998   179.771



           ************************************************************
           *        Program running with 8 parallel MPI-processes     *
           *              working on a common directory               *
           ************************************************************
           ************************************************************
           *              Shut down parallel processing               *
           ************************************************************


           ************************************************************
           *        Program running with 8 parallel MPI-processes     *
           *              working on a common directory               *
           ************************************************************

Diagonalization of the overlap matrix:
Smallest eigenvalue                        ... 1.279e-04
Time for diagonalization                   ...    0.450 sec
Threshold for overlap eigenvalues          ... 1.000e-08
Number of eigenvalues below threshold      ... 0
Time for construction of square roots      ...    0.014 sec
Total time needed                          ...    0.464 sec

-------------------
DFT GRID GENERATION
-------------------

General Integration Accuracy     IntAcc      ...  4.340
Radial Grid Type                 RadialGrid  ... Gauss-Chebyshev
Angular Grid (max. acc.)         AngularGrid ... Lebedev-194
Angular grid pruning method      GridPruning ... 3 (G Style)
Weight generation scheme         WeightScheme... Becke
Basis function cutoff            BFCut       ...    1.0000e-11
Integration weight cutoff        WCut        ...    1.0000e-14
Grids for H and He will be reduced by one unit

# of grid points (after initial pruning)     ...  41338 (   0.0 sec)
# of grid points (after weights+screening)   ...  37766 (   0.1 sec)
nearest neighbour list constructed           ...    0.0 sec
Grid point re-assignment to atoms done       ...    0.0 sec
Grid point division into batches done        ...    0.1 sec
Reduced shell lists constructed in    0.1 sec

Total number of grid points                  ...    37766
Total number of batches                      ...      600
Average number of points per batch           ...       62
Average number of grid points per atom       ...     1988
Average number of shells per batch           ...    97.88 (78.31%)
Average number of basis functions per batch  ...   233.09 (80.65%)
Average number of large shells per batch     ...    80.72 (82.47%)
Average number of large basis fcns per batch ...   191.57 (82.18%)
Maximum spatial batch extension              ...   2.40,  2.42,  2.20 au
Average spatial batch extension              ...   0.15,  0.14,  0.15 au

Time for grid setup =    0.522 sec

--------------
SCF ITERATIONS
--------------
ITER       Energy         Delta-E        Max-DP      RMS-DP      [F,P]     Damp
               ***  Starting incremental Fock matrix formation  ***
                      *** Initiating the SOSCF procedure ***
                      *** Re-Reading the Fockian *** 
                      *** Removing any level shift *** 
ITER      Energy       Delta-E        Grad      Rot      Max-DP    RMS-DP
  0   -290.06759331 -290.0675933108  0.000175  0.000175  0.000280  0.000009
               *** Restarting incremental Fock matrix formation ***
  1   -290.06759677  -0.0000034634  0.000086  0.000247  0.000172  0.000004
  2   -290.06759725  -0.0000004771  0.000015  0.000060  0.000051  0.000001
  3   -290.06759726  -0.0000000045  0.000030  0.000046  0.000029  0.000000
  4   -290.06759727  -0.0000000131  0.000007  0.000013  0.000010  0.000000
                  ***Gradient check signals convergence***
              ***Rediagonalizing the Fockian in SOSCF/NRSCF***

               *****************************************************
               *                     SUCCESS                       *
               *           SCF CONVERGED AFTER   5 CYCLES          *
               *****************************************************

Setting up the final grid:

General Integration Accuracy     IntAcc      ...  5.010
Radial Grid Type                 RadialGrid  ... Gauss-Chebyshev
Angular Grid (max. acc.)         AngularGrid ... Lebedev-434
Angular grid pruning method      GridPruning ... 3 (G Style)
Weight generation scheme         WeightScheme... Becke
Basis function cutoff            BFCut       ...    1.0000e-11
Integration weight cutoff        WCut        ...    1.0000e-14
Grids for H and He will be reduced by one unit

# of grid points (after initial pruning)     ... 155082 (   0.0 sec)
# of grid points (after weights+screening)   ... 139957 (   0.4 sec)
nearest neighbour list constructed           ...    0.0 sec
Grid point re-assignment to atoms done       ...    0.0 sec
Grid point division into batches done        ...    0.9 sec
Reduced shell lists constructed in    1.1 sec

Total number of grid points                  ...   139957
Total number of batches                      ...     2197
Average number of points per batch           ...       63
Average number of grid points per atom       ...     7366
Average number of shells per batch           ...    96.72 (77.38%)
Average number of basis functions per batch  ...   230.00 (79.58%)
Average number of large shells per batch     ...    78.76 (81.43%)
Average number of large basis fcns per batch ...   187.37 (81.47%)
Maximum spatial batch extension              ...   1.96,  2.81,  2.06 au
Average spatial batch extension              ...   0.10,  0.10,  0.10 au

Final grid set up in    2.0 sec
Final integration                            ... done (   1.1 sec)
Change in XC energy                          ...     0.000341683
Integrated number of electrons               ...    54.000031238
Previous integrated no of electrons          ...    53.999453812
Total Energy       :         -290.06725559 Eh           -7893.13130 eV
  Last Energy change         ...   -2.0538e-10  Tolerance :   1.0000e-08
  Last MAX-Density change    ...    4.2747e-06  Tolerance :   1.0000e-07
             **** THE GBW FILE WAS UPDATED (2621_+.gbw) ****
             **** DENSITY FILE WAS UPDATED (2621_+.scfp.tmp) ****
             **** ENERGY FILE WAS UPDATED (2621_+.en.tmp) ****
Total SCF time: 0 days 0 hours 0 min 38 sec 
           ************************************************************
           *              Shut down parallel processing               *
           ************************************************************

-------------------------   --------------------
[...]
     18       0.004287  -0.000430  -0.175789   0.000000   0.000955  -0.003313
     19       0.003732  -0.000711  -0.142613  -0.000001   0.000470  -0.001528
     20       0.003192  -0.001710  -0.323105   0.000002   0.000369  -0.002805
     21       0.139238   0.012421   0.000402   0.039657  -0.000055   0.000132
     22      -0.014042   0.000005   0.000871   0.198936   0.000635   0.000223
     23      -0.020029   0.006608  -0.000511   0.576974   0.001920   0.000965
     24       0.111114  -0.016718   0.001078   0.271516  -0.000195   0.001550
     25      -0.002680   0.008285  -0.000028   0.332772   0.001292   0.001938
     26       0.089215   0.000954   0.000981  -0.341351  -0.001301  -0.002233
     27       0.092022  -0.012162  -0.000787   0.193733  -0.000082  -0.001612
     28       0.040704  -0.002737  -0.000263  -0.532134  -0.000437   0.003082
     29       0.064326   0.007277  -0.000553  -0.044393   0.000290   0.000044
     30       0.066446   0.442596  -0.012354  -0.003109   0.003166   0.002339
     31       0.033962   0.254235  -0.007255   0.007312  -0.002436   0.000358
     32       0.163489  -0.477274   0.003930   0.001299  -0.005923   0.002432
     33      -0.065983   0.382328  -0.009237  -0.004501   0.000045  -0.000048
     34      -0.043875  -0.570032   0.009598  -0.004007  -0.002380  -0.001168
     35      -0.112344  -0.185577   0.003749   0.004499  -0.000509   0.002805
     36      -0.075550   0.000052   0.004002  -0.002789  -0.009235  -0.002447
     37      -0.037777   0.003081  -0.005161   0.005407   0.018445   0.003274
     38      -0.407694   0.003506   0.030318  -0.000248   0.006188  -0.001284
     39       0.349289   0.001303  -0.034498   0.000657  -0.045259  -0.507714
     40       0.248540   0.001503  -0.035906  -0.000651   0.044539   0.490339
     41       0.324733  -0.002321   0.023965  -0.000228   0.032457   0.398566
     42       0.437121  -0.000162   0.023165  -0.000117  -0.005130  -0.237398
     43      -0.209655  -0.001924   0.033158   0.000036  -0.007241  -0.396554
     44      -0.224755   0.002898  -0.034440  -0.000431  -0.000985  -0.339812
     45      -0.121544  -0.002087   0.048258   0.000373  -0.144598   0.006816
     46      -0.013591  -0.000472  -0.014563   0.002106  -0.933925   0.050665
     47       0.203066   0.022014  -0.121396   0.000585  -0.297701   0.018063
     48      -0.027813  -0.001032   0.208758  -0.000218   0.069860  -0.052180
     49       0.022731   0.000718  -0.094527   0.000054   0.011273  -0.008727
     50       0.084117   0.000168  -0.326697  -0.000006   0.000613   0.001181
     51       0.008843  -0.000745  -0.274442  -0.000049  -0.017338   0.050012
     52      -0.026397  -0.000035   0.088552   0.000020  -0.002780   0.007685
     53      -0.005218   0.002460   0.415802  -0.000012  -0.000091   0.000820
     54      -0.042055   0.000153   0.440389   0.000032   0.003782  -0.015264
     55       0.007626   0.001545   0.044953  -0.000029  -0.001209   0.005563
     56      -0.023765  -0.002159  -0.066605  -0.000029  -0.005417   0.024036
                 48         49         50         51         52         53    
      0      -0.000031  -0.000044  -0.022040  -0.016561  -0.001517  -0.000011
      1      -0.000120  -0.000293   0.056974  -0.076889   0.003544   0.000306
      2      -0.000073  -0.000025   0.073574   0.054639   0.003907   0.000141
      3       0.000038  -0.000054   0.000786   0.000657   0.001103   0.000363
      4      -0.000056  -0.000117  -0.001238   0.002700  -0.003099   0.000345
      5       0.000078   0.000061  -0.000961  -0.001480  -0.000752   0.000269
      6       0.000134  -0.000294   0.001682  -0.000259  -0.032204   0.002115
      7      -0.000249   0.000592  -0.004786   0.000500   0.079507  -0.005917
      8      -0.000059   0.000017  -0.000881  -0.000009   0.012398  -0.000820
      9      -0.000740   0.005487   0.000020  -0.000307   0.002457  -0.000444
     10       0.000720  -0.001039   0.000434  -0.000063  -0.005943  -0.075161
     11       0.000304  -0.001299   0.000228  -0.000114  -0.005090  -0.063286
     12      -0.000534  -0.000940   0.000019   0.000012  -0.001061  -0.000349
     13      -0.002178  -0.006013   0.000130  -0.000006   0.000072  -0.002437
     14      -0.000932  -0.002691  -0.000091  -0.000090   0.001306  -0.000704
     15      -0.045339  -0.070453  -0.000203   0.000177   0.000041   0.001112
     16      -0.006200  -0.014375  -0.000059   0.000035   0.000062   0.000148
     17       0.005556  -0.004912  -0.000003   0.000001   0.000077  -0.000287
     18      -0.029158   0.033604   0.000051  -0.000060  -0.000171   0.006075
     19      -0.018763   0.014783   0.000011  -0.000022  -0.000219  -0.000671
     20      -0.041439   0.027853   0.000014  -0.000035  -0.000519  -0.004700
     21       0.000246   0.000259  -0.049240  -0.015088  -0.000586   0.000340
     22       0.000324   0.000318  -0.240092  -0.082980  -0.012765  -0.000191
     23       0.000865   0.000994  -0.712904  -0.197145  -0.035523  -0.000569
     24       0.000109   0.000791   0.102732   0.400498   0.005322  -0.000563
     25       0.000174   0.000966   0.140595   0.485339   0.007753  -0.000559
     26       0.000120  -0.000679  -0.122525  -0.502293  -0.006296   0.000596
     27      -0.000342  -0.000868   0.206357  -0.189309   0.015164   0.000237
     28       0.000941   0.002293  -0.573872   0.506802  -0.037706  -0.001998
     29       0.000151   0.000273  -0.036176   0.052207  -0.001251  -0.000403
     30      -0.000254  -0.000191  -0.001404   0.000481  -0.014953   0.002861
     31       0.000155   0.000602   0.021696  -0.014966   0.031393  -0.001711
     32      -0.000120   0.000212   0.005432  -0.004355  -0.003730   0.002235
     33      -0.000018   0.000152  -0.003448  -0.007707   0.000812   0.000114
     34      -0.000056   0.000007  -0.007172  -0.017527   0.001261  -0.000669
     35       0.000306   0.000882   0.008058   0.022529   0.003996   0.000048
     36      -0.001825   0.001329  -0.022163   0.002004   0.363936  -0.029982
     37       0.003571  -0.004052   0.052357  -0.004807  -0.909389   0.066772
     38       0.001043  -0.000404   0.007839   0.000096  -0.150796   0.010477
     39       0.011245  -0.040919   0.001028   0.001652  -0.024139  -0.359832
     40      -0.010569   0.039153  -0.000961  -0.001679   0.023613   0.332915
     41      -0.008506   0.032665  -0.000539  -0.001348   0.025347   0.270679
     42       0.002941  -0.015084  -0.002599   0.002131   0.025335   0.357508
     43       0.004387  -0.024957  -0.004172   0.003017   0.041390   0.555678
     44       0.003929  -0.021940  -0.003629   0.002572   0.033189   0.476309
     45       0.002728   0.008829  -0.000024   0.000109  -0.001338   0.009021
     46       0.023179   0.066863   0.000359   0.000214  -0.021589   0.035771
     47       0.008137   0.025577  -0.000191  -0.000164  -0.001179   0.010180
     48       0.560298   0.790222   0.002329  -0.001913  -0.000303  -0.014530
     49       0.092631   0.131929   0.000490  -0.000237  -0.000330  -0.001988
     50      -0.021041  -0.027206  -0.000044   0.000107  -0.000972   0.001132
     51       0.607090  -0.502719  -0.000518   0.000698   0.004560  -0.038317
     52       0.091221  -0.076669  -0.000062   0.000130   0.000635  -0.005881
     53       0.001132  -0.002007  -0.000027  -0.000028   0.000132  -0.001041
     54      -0.281120   0.147862  -0.000047  -0.000145  -0.002397  -0.033176
     55       0.114050  -0.059224   0.000037   0.000052   0.001008   0.014783
     56       0.449544  -0.234928   0.000111   0.000266   0.003605   0.056619
                  54         55         56    
      0       0.000020  -0.001483  -0.000029
      1      -0.000036   0.000058  -0.002591
      2      -0.000033   0.001681   0.000696
      3      -0.000102  -0.044868  -0.000922
      4      -0.000010   0.004878  -0.078355
      5      -0.000023   0.038669   0.020332
      6      -0.000086  -0.000530   0.000867
      7       0.000378   0.001980  -0.002540
      8       0.000039   0.001517  -0.000291
      9       0.000032   0.000341   0.000034
     10       0.005844  -0.000263   0.000100
     11       0.004972   0.000076   0.000050
     12       0.000045   0.000052   0.000000
     13       0.000521  -0.000121   0.000724
     14       0.000572  -0.000602  -0.000255
     15       0.010068  -0.000105   0.000108
     16       0.001974   0.000110  -0.000056
     17       0.000642   0.000010   0.000060
     18       0.080649  -0.000023  -0.000019
     19      -0.007249  -0.000017  -0.000020
     20      -0.055768  -0.000016   0.000017
     21      -0.000112  -0.001326   0.000012
     22       0.000057  -0.004149   0.001750
     23       0.000191  -0.012032   0.001096
     24       0.000022   0.014831   0.011660
     25      -0.000006   0.011982   0.011791
     26      -0.000075  -0.011804  -0.010812
     27      -0.000062   0.007842  -0.011617
     28       0.000287  -0.010303   0.022125
     29       0.000008  -0.000368   0.000426
     30      -0.000007   0.205976  -0.297347
     31      -0.000179  -0.554236   0.742238
     32      -0.000143  -0.048308   0.084506
     33       0.000204   0.408896   0.309717
     34       0.000276   0.484369   0.339480
     35      -0.000132  -0.491412  -0.366115
     36       0.002204   0.006470  -0.008874
     37      -0.004341  -0.017138   0.024112
     38      -0.000785  -0.006615   0.006700
     39       0.026791  -0.000486  -0.000363
     40      -0.025203   0.000159   0.002384
     41      -0.020439   0.002089   0.000508
     42      -0.029545   0.000046   0.000494
     43      -0.044825   0.000254  -0.001018
     44      -0.037943  -0.001332  -0.000108
     45      -0.001134   0.001064  -0.002057
     46      -0.004205   0.000436  -0.002040
     47      -0.001299   0.000850  -0.001976
     48      -0.100377   0.000515  -0.000221
     49      -0.017309   0.000078   0.000043
     50       0.002225  -0.000048  -0.000050
     51      -0.587131   0.000318  -0.000037
     52      -0.092451   0.000116  -0.000022
     53      -0.012713   0.000086  -0.000031
     54      -0.390529   0.000145  -0.000005
     55       0.170991  -0.000156   0.000192
     56       0.662169  -0.000206   0.000029


-----------
IR SPECTRUM
-----------

 Mode    freq (cm**-1)   T**2         TX         TY         TZ
-------------------------------------------------------------------
   6:        75.25    0.498164  (  0.449128  -0.512523   0.183761)
   7:        92.16    2.234662  ( -0.233876  -1.473846   0.087993)
   8:       141.13    1.611374  ( -0.558095  -1.111065   0.255811)
   9:       207.03    0.778226  (  0.411068   0.461732   0.629327)
  10:       279.26    2.887297  ( -0.381398   1.331972  -0.983708)
  11:       280.56    0.706040  (  0.017493  -0.714242  -0.442258)
  12:       377.82    3.829348  (  0.603061   0.042136  -1.861153)
  13:       437.92    3.543781  (  1.540681   0.651669   0.863373)
  14:       534.16    0.542809  (  0.641043  -0.185989   0.311899)
  15:       656.15   14.710328  (  0.410036   3.703128  -0.910516)
  16:       784.40   18.301784  ( -0.009736   3.205972  -2.832567)
  17:       824.73    2.828762  ( -0.452926  -1.375947   0.854628)
  18:       845.19    7.748556  (  1.268913  -2.181492   1.174524)
  19:       907.23    3.606677  (  1.868283   0.077927   0.331850)
  20:       965.06    2.654696  ( -1.135665   1.005967   0.594130)
  21:       987.67    3.033033  ( -0.952695  -1.089484   0.968726)
  22:       997.29   47.365792  (  0.929451  -6.478113   2.129781)
  23:      1021.25    9.122340  ( -0.254570  -2.969481   0.489609)
  24:      1029.76    4.001173  ( -1.548064  -1.259802   0.132553)
  25:      1054.93   33.966049  (  2.890076  -0.578018   5.027863)
  26:      1094.55    3.792890  ( -1.836896   0.524479  -0.378977)
  27:      1097.71    9.309273  ( -1.713980  -2.066007   1.450227)
  28:      1111.19    4.473680  (  0.550659  -0.794805   1.881154)
  29:      1145.81    0.819977  ( -0.412229  -0.513178  -0.621846)
  30:      1183.00    3.878148  ( -1.388013  -0.355399  -1.351022)
  31:      1212.28    0.154889  ( -0.157683  -0.312163   0.180498)
  32:      1247.09    1.917386  (  1.282752  -0.493806  -0.167601)
  33:      1328.79    1.315812  (  0.396296   0.202448   1.057250)
  34:      1332.43    3.785625  ( -0.591651   0.892605  -1.624448)
  35:      1383.70    3.462373  (  0.101197   0.166670   1.850501)
  36:      1401.87   30.919076  ( -4.099195  -1.739060  -3.330367)
  37:      1437.91   14.465154  (  0.661661   0.573817   3.701093)
  38:      1453.60   13.389123  (  2.918266   1.477300   1.640254)
  39:      1459.44    0.499353  (  0.571313   0.402120  -0.106088)
  40:      1490.99   21.708499  (  0.317941   4.615977  -0.547874)
  41:      1495.46   24.085318  ( -0.143806   0.874291   4.827034)
  42:      1502.47   10.584844  (  3.099866  -0.112915   0.981287)
  43:      1647.39   54.406848  (  4.956350  -2.939556  -4.604395)
  44:      1725.98    3.367589  (  0.106875   0.292523   1.808479)
  45:      3094.19    0.071899  ( -0.216702  -0.025461  -0.155855)
  46:      3117.02    9.235686  (  0.255780   1.100320   2.821269)
  47:      3157.89    2.040825  ( -0.171109  -0.340215  -1.376881)
  48:      3164.33    4.151845  ( -1.915104  -0.360117   0.595431)
  49:      3171.68    0.425415  ( -0.560084  -0.329139  -0.058209)
  50:      3194.54    0.182542  (  0.365874  -0.200641   0.091768)
  51:      3201.42    0.062334  ( -0.003377   0.156408  -0.194574)
  52:      3207.39    0.707866  (  0.159888  -0.727578  -0.391066)
  53:      3249.53    0.574555  (  0.245887   0.653774   0.294405)
  54:      3257.82    0.817529  (  0.879953   0.131534  -0.160969)
  55:      3430.28   46.194733  (  4.764712   0.057072  -4.846545)
  56:      3480.40   64.505494  (  0.308770   7.809109  -1.851480)

The first frequency considered to be a vibration is 6
The total number of vibrations considered is 51


--------------------------
THERMOCHEMISTRY AT 298.15K
--------------------------

Temperature         ... 298.15 K
Pressure            ... 1.00 atm
Total Mass          ... 98.17 AMU

Throughout the following assumptions are being made:
  (1) The electronic state is orbitally nondegenerate
  (2) There are no thermally accessible electronically excited states
  (3) Hindered rotations indicated by low frequency modes) are not
      treated as such but are treated as vibrations and this may
      case some error
  (4) All equations used are the standard statistical mechanics
      equations for an ideal gas
  (5) All vibrations are strinctly harmonic


------------
INNER ENERGY
------------

The inner energy is: U= E(el) + E(ZPE) + E(vib) + E(rot) + E(trans)
    E(el)   - is the total energy from the electronic structure calculation
              = E(kin-el) + E(nuc-el) + E(el-el) + E(nuc-nuc)
    E(ZPE)  - the the zero temperature vibrational energy from the frequency calculation
    E(vib)  - the the finite temperature correction to E(ZPE) due to population
              of excietd vibrational states
    E(rot)  - is the rotational thermal energy
    E(trans)- is the translational thermal energy

Summary of contributions to the inner energy U:
Electronic energy                ...   -290.06725576 Eh
Zero point energy                ...      0.17536681 Eh     110.04 kcal/mol
Thermal vibrational correction   ...      0.00527480 Eh       3.31 kcal/mol
Thermal rotational correction    ...      0.00141627 Eh       0.89 kcal/mol
Thermal translational correction ...      0.00141627 Eh       0.89 kcal/mol
-----------------------------------------------------------------------
Total thermal energy                   -289.88378160 Eh


Summary of corrections to the electronic energy:
(perhaps to be used in another calculation)
Total thermal correction                  0.00810734 Eh       5.09 kcal/mol
Non-thermal (ZPE) correction              0.17536681 Eh     110.04 kcal/mol
-----------------------------------------------------------------------
Total correction                          0.18347416 Eh     115.13 kcal/mol


--------
ENTHALPY
--------

The enthalpy is H = U + kB*T
                kB is Boltzmann's constant
Total free energy                 ...   -289.88378160 Eh 
Thermal Enthalpy correction       ...      0.00094421 Eh       0.59 kcal/mol
-----------------------------------------------------------------------
Total Enthalpy                    ...   -289.88283739 Eh


-------
ENTROPY
-------

The entropy contributions are T*S = T*(S(el)+S(vib)+S(rot)+S(trans)
     S(el)   - electronic entropy
     S(vib)  - vibrational entropy
     S(rot)  - rotational entropy
     S(trans)- translational entropy
The entropies will be listed as mutliplied by the temperature to get
units of energy

Electronic entropy                ...      0.00000000 Eh      0.00 kcal/mol
Vibrational entropy               ...      0.00958168 Eh      6.01 kcal/mol
Rotational entropy                ...      0.01217724 Eh      7.64 kcal/mol
Translational entropy             ...      0.01884507 Eh     11.83 kcal/mol
-----------------------------------------------------------------------
Final entropy term                ...      0.04060398 Eh     25.48 kcal/mol


CAUTION: The rotational entropy is not quite correctly treated here
         because it includes a symmetry number that is not yet correctly
         implemented in ORCA!
For a nonlinear molecule the correct rotational entropy is:
    S(rot) = R*(ln(qrot/sn)+1.5)
    R    = 8.31441 J/mol/K = 1.987191683e-3 kcal/mol/K
    qrot = 267200.5698239
    sn is the rotational symmetry number. We have assumed 3 here
       if it is different for your molecule then you should correct
       the printed rotational entropy by manually evaluating the equation
       as given above

For convenience we print out the resulting values for sn=1 - 12:
 sn= 1  qrot/sn=  267200.5698 T*S(rot)=     8.29 kcal/mol T*S(tot)=    26.13 kcal/mol
 sn= 2  qrot/sn=  133600.2849 T*S(rot)=     7.88 kcal/mol T*S(tot)=    25.72 kcal/mol
 sn= 3  qrot/sn=   89066.8566 T*S(rot)=     7.64 kcal/mol T*S(tot)=    25.48 kcal/mol
 sn= 4  qrot/sn=   66800.1425 T*S(rot)=     7.47 kcal/mol T*S(tot)=    25.31 kcal/mol
 sn= 5  qrot/sn=   53440.1140 T*S(rot)=     7.34 kcal/mol T*S(tot)=    25.18 kcal/mol
 sn= 6  qrot/sn=   44533.4283 T*S(rot)=     7.23 kcal/mol T*S(tot)=    25.07 kcal/mol
 sn= 7  qrot/sn=   38171.5100 T*S(rot)=     7.14 kcal/mol T*S(tot)=    24.98 kcal/mol
 sn= 8  qrot/sn=   33400.0712 T*S(rot)=     7.06 kcal/mol T*S(tot)=    24.90 kcal/mol
 sn= 9  qrot/sn=   29688.9522 T*S(rot)=     6.99 kcal/mol T*S(tot)=    24.83 kcal/mol
 sn=10  qrot/sn=   26720.0570 T*S(rot)=     6.93 kcal/mol T*S(tot)=    24.77 kcal/mol
 sn=11  qrot/sn=   24290.9609 T*S(rot)=     6.87 kcal/mol T*S(tot)=    24.71 kcal/mol
 sn=12  qrot/sn=   22266.7142 T*S(rot)=     6.82 kcal/mol T*S(tot)=    24.66 kcal/mol


-------------------
GIBBS FREE ENTHALPY
-------------------

The Gibbs free enthalpy is G = H - T*S

Total enthalpy                    ...   -289.88283739 Eh 
Total entropy correction          ...     -0.04060398 Eh    -25.48 kcal/mol
-----------------------------------------------------------------------
Final Gibbs free enthalpy         ...   -289.92344137 Eh

For completeness - the Gibbs free enthalpy minus the electronic energy
G-E(el)                           ...      0.14381439 Eh     90.24 kcal/mol


Timings for individual modules:

Sum of individual times         ...     2420.625 sec (=  40.344 min)
GTO integral calculation        ...        8.110 sec (=   0.135 min)   0.3 %
SCF iterations                  ...      219.109 sec (=   3.652 min)   9.1 %
SCF Gradient evaluation         ...      103.810 sec (=   1.730 min)   4.3 %
Geometry relaxation             ...        0.240 sec (=   0.004 min)   0.0 %
Analytical frequency calculation...     2089.356 sec (=  34.823 min)  86.3 %
                             ****ORCA TERMINATED NORMALLY****
TOTAL RUN TIME: 0 days 0 hours 40 minutes 22 seconds 311 msec
