
                                 *****************
                                 * O   R   C   A *
                                 *****************

           --- An Ab Initio, DFT and Semiempirical electronic structure package ---

                  #######################################################
                  #                        -***-                        #
                  #  Department of molecular theory and spectroscopy    #
                  #              Directorship: Frank Neese              #
                  # Max Planck Institute for Chemical Energy Conversion #
                  #                  D-45470 Muelheim/Ruhr              #
                  #                       Germany                       #
                  #                                                     #
                  #                  All rights reserved                #
                  #                        -***-                        #
                  #######################################################


                         Program Version 3.0.3 - RELEASE   -


 With contributions from (in alphabetic order):
   Ute Becker             : Parallelization
   Dmytro Bykov           : SCF Hessian
   Dmitry Ganyushin       : Spin-Orbit,Spin-Spin,Magnetic field MRCI
   Andreas Hansen         : Spin unrestricted coupled pair/coupled cluster methods
   Dimitrios Liakos       : Extrapolation schemes; parallel MDCI
   Robert Izsak           : Overlap fitted RIJCOSX, COSX-SCS-MP3
   Christian Kollmar      : KDIIS, OOCD, Brueckner-CCSD(T), CCSD density
   Simone Kossmann        : Meta GGA functionals, TD-DFT gradient, OOMP2, MP2 Hessian
   Taras Petrenko         : DFT Hessian,TD-DFT gradient, ASA and ECA modules, normal mode analysis, Resonance Raman, ABS, FL, XAS/XES, NRVS
   Christoph Reimann      : Effective Core Potentials
   Michael Roemelt        : Restricted open shell CIS
   Christoph Riplinger    : Improved optimizer, TS searches, QM/MM, DLPNO-CCSD
   Barbara Sandhoefer     : DKH picture change effects
   Igor Schapiro          : Molecular dynamics
   Kantharuban Sivalingam : CASSCF convergence, NEVPT2
   Boris Wezisla          : Elementary symmetry handling
   Frank Wennmohs         : Technical directorship


 We gratefully acknowledge several colleagues who have allowed us to
 interface, adapt or use parts of their codes:
   Stefan Grimme, W. Hujo, H. Kruse, T. Risthaus : VdW corrections, initial TS optimization,
                                                   DFT functionals, gCP
   Ed Valeev                                     : LibInt (2-el integral package), F12 methods
   Garnet Chan, S. Sharma, R. Olivares           : DMRG
   Ulf Ekstrom                                   : XCFun DFT Library
   Mihaly Kallay                                 : mrcc  (arbitrary order and MRCC methods)
   Andreas Klamt, Michael Diedenhofen            : otool_cosmo (COSMO solvation model)
   Frank Weinhold                                : gennbo (NPA and NBO analysis)
   Christopher J. Cramer and Donald G. Truhlar   : smd solvation model


 Your calculation uses the libint2 library for the computation of 2-el integrals
 For citations please refer to: http://libint.valeyev.net

 This ORCA versions uses:
   CBLAS   interface :  Fast vector & matrix operations
   LAPACKE interface :  Fast linear algebra routines
   SCALAPACK package :  Parallel linear algebra routines


Your calculation utilizes the basis: Ahlrichs-TZV
Cite in your paper:
H - Kr: A. Schaefer, H. Horn and R. Ahlrichs, J. Chem. Phys. 97, 2571 (1992).

The def2-TZV basis will be loaded
Cite in your paper:
 	F. Weigend, R. Ahlrichs, Phys. Chem. Chem. Phys. 2005, 7, 3297.

================================================================================
                                        WARNINGS
                       Please study these warnings very carefully!
================================================================================
Now building the actual basis set
WARNING: Geometry optimizations can change the point-group symmetry!

WARNING: Geometry Optimization
  ===> : Switching off AutoStart
         For restart on a previous wavefunction, please use MOREAD


INFO   : the flag for use of LIBINT has been found!

================================================================================
                                       INPUT FILE
================================================================================
NAME = 4617_+.inp
|  1> ! NORI PBE0 def2-TZVP UseSym TightOPT Freq TightSCF Grid3 FinalGrid5 XYZFile
|  2> % pal
|  3>     nprocs 8
|  4> end
|  5> %method
|  6>     SymThresh 5.0e-2
|  7> end
|  8> % geom 
|  9>     MaxIter 10
| 10> end 
| 11> % maxcore 2000
| 12> % output
| 13>     printlevel mini
| 14>     print[ P_Basis ] 0
| 15>     print[ P_SCFInfo ] 1
| 16>     print[ P_SCFIterInfo ] 1
| 17>     print[ P_OrbEn ] 0
| 18>     print[ P_Cartesian ] 0
| 19> end
| 20> % elprop
| 21>     Dipole false
| 22> end
| 23> *xyz 1 1
| 24>  C        1.4916099240     0.1195926715    -0.3345670904 
| 25>  C        2.8881444315    -0.2308907954     0.0488539975 
| 26>  C        3.2469777962    -1.5581459838     0.6879658029 
| 27>  O        4.6574241421    -1.5483694355     0.7589922729 
| 28>  C        5.1413053709    -0.8930346560    -0.3969227318 
| 29>  C        4.1249552224     0.1955271095    -0.6324402471 
| 30>  N        3.7468837433     0.8472246564     0.6537214235 
| 31>  H        1.4291017861     1.1003981441    -0.8090291966 
| 32>  H        0.8304668402     0.1015548925     0.5336489763 
| 33>  H        1.1267097828    -0.6185291830    -1.0517219388 
| 34>  H        2.8677933958    -2.3585050182     0.0398882002 
| 35>  H        2.8493244417    -1.6962087911     1.6943964824 
| 36>  H        6.1532204656    -0.5391687589    -0.1970165492 
| 37>  H        5.1567899354    -1.5496187129    -1.2761836453 
| 38>  H        4.1460454160     0.8467747968    -1.4967618017 
| 39>  H        3.4028855750     1.8000014653     0.6273679191 
| 40>  H        4.3049017312     0.5963975984     1.4679181263 
| 41> *
| 42> 
| 43>                          ****END OF INPUT****
================================================================================

The point group is C1 - hence turning off symmetry
If this is a round-off problem, please increase the symmetry
        detection tolerance (%method SymThresh)


                       *****************************
                       * Geometry Optimization Run *
                       *****************************

Geometry optimization settings:
Update method            Update   .... BFGS
Choice of coordinates    CoordSys .... Redundant Internals
Initial Hessian          InHess   .... Almoef's Model

Convergence Tolerances:
Energy Change            TolE     ....  1.0000e-06 Eh
Max. Gradient            TolMAXG  ....  1.0000e-04 Eh/bohr
RMS Gradient             TolRMSG  ....  3.0000e-05 Eh/bohr
Max. Displacement        TolMAXD  ....  1.0000e-03 bohr
RMS Displacement         TolRMSD  ....  6.0000e-04 bohr

------------------------------------------------------------------------------
                        ORCA OPTIMIZATION COORDINATE SETUP
------------------------------------------------------------------------------

The optimization will be done in new redundant internal coordinates
Making redundant internal coordinates   ...  (new redundants) done
Evaluating the initial hessian          ...  (Almloef) done
Evaluating the coordinates              ...  done
Calculating the B-matrix                .... done
Calculating the G-matrix                .... done
Diagonalizing the G-matrix              .... done
The first mode is                       ....   67
The number of degrees of freedom        ....   45

    -----------------------------------------------------------------
                    Redundant Internal Coordinates


    -----------------------------------------------------------------
         Definition                    Initial Value    Approx d2E/dq
    -----------------------------------------------------------------
      1. B(C   1,C   0)                  1.4900         0.432677   
      2. B(C   2,C   1)                  1.5162         0.393016   
      3. B(O   3,C   2)                  1.4123         0.515643   
      4. B(C   4,O   3)                  1.4141         0.512140   
      5. B(C   5,C   4)                  1.5078         0.405347   
      6. B(C   5,C   1)                  1.4750         0.457181   
      7. B(N   6,C   1)                  1.5052         0.366504   
      8. B(N   6,C   5)                  1.4906         0.386714   
      9. B(H   7,C   0)                  1.0913         0.358345   
     10. B(H   8,C   0)                  1.0914         0.358204   
     11. B(H   9,C   0)                  1.0919         0.357570   
     12. B(H  10,C   2)                  1.0974         0.350400   
     13. B(H  11,C   2)                  1.0909         0.358894   
     14. B(H  12,C   4)                  1.0905         0.359460   
     15. B(H  13,C   4)                  1.0975         0.350351   
     16. B(H  14,C   5)                  1.0824         0.370276   
     17. B(H  15,N   6)                  1.0133         0.427466   
     18. B(H  16,N   6)                  1.0184         0.419502   
     19. A(H   8,C   0,H   9)          107.9902         0.290277   
     20. A(C   1,C   0,H   8)          111.0489         0.331982   
     21. A(C   1,C   0,H   9)          108.8576         0.331885   
     22. A(H   7,C   0,H   9)          107.6285         0.290295   
     23. A(C   1,C   0,H   7)          112.1453         0.332004   
     24. A(H   7,C   0,H   8)          109.0260         0.290376   
     25. A(C   2,C   1,C   5)          104.4372         0.379500   
     26. A(C   5,C   1,N   6)           60.0110         0.372591   
     27. A(C   0,C   1,C   5)          126.8010         0.385891   
     28. A(C   2,C   1,N   6)          108.8198         0.363049   
     29. A(C   0,C   1,N   6)          118.0114         0.369077   
     30. A(C   0,C   1,C   2)          122.4252         0.375901   
     31. A(O   3,C   2,H  11)          108.5736         0.339853   
     32. A(H  10,C   2,H  11)          109.0602         0.289443   
     33. A(C   1,C   2,H  11)          114.4185         0.326856   
     34. A(O   3,C   2,H  10)          112.3227         0.338497   
     35. A(C   1,C   2,H  10)          107.9220         0.325570   
     36. A(C   1,C   2,O   3)          104.5664         0.385065   
     37. A(C   2,O   3,C   4)          107.6881         0.400761   
     38. A(H  12,C   4,H  13)          109.1424         0.289509   
     39. A(C   5,C   4,H  13)          108.4390         0.327222   
     40. A(O   3,C   4,C   5)          103.3914         0.386682   
     41. A(O   3,C   4,H  12)          108.5456         0.339556   
     42. A(O   3,C   4,H  13)          112.4861         0.338104   
     43. A(C   5,C   4,H  12)          114.8257         0.328610   
     44. A(C   1,C   5,H  14)          123.9933         0.336884   
     45. A(C   1,C   5,C   4)          106.5199         0.381539   
     46. A(C   4,C   5,N   6)          110.5998         0.368345   
     47. A(C   1,C   5,N   6)           60.9990         0.376058   
     48. A(C   4,C   5,H  14)          123.0912         0.330223   
     49. A(N   6,C   5,H  14)          115.5241         0.325704   
     50. A(C   1,N   6,C   5)           58.9899         0.359801   
     51. A(H  15,N   6,H  16)          115.9998         0.301173   
     52. A(C   5,N   6,H  16)          116.3059         0.329649   
     53. A(C   1,N   6,H  16)          117.2228         0.326743   
     54. A(C   5,N   6,H  15)          118.3431         0.330676   
     55. A(C   1,N   6,H  15)          117.9914         0.327757   
     56. D(C   2,C   1,C   0,H   7)   -178.1717         0.014797   
     57. D(C   2,C   1,C   0,H   9)    -59.1912         0.014797   
     58. D(C   2,C   1,C   0,H   8)     59.5693         0.014797   
     59. D(N   6,C   1,C   0,H   7)     41.4014         0.014797   
     60. D(C   5,C   1,C   0,H   9)     88.3859         0.014797   
     61. D(C   5,C   1,C   0,H   7)    -30.5947         0.014797   
     62. D(N   6,C   1,C   0,H   9)    160.3819         0.014797   
     63. D(C   5,C   1,C   0,H   8)   -152.8536         0.014797   
     64. D(N   6,C   1,C   0,H   8)    -80.8576         0.014797   
     65. D(O   3,C   2,C   1,C   5)     20.3317         0.012272   
     66. D(H  10,C   2,C   1,C   5)    -99.4364         0.012272   
     67. D(O   3,C   2,C   1,C   0)    174.0159         0.012272   
     68. D(O   3,C   2,C   1,N   6)    -42.4397         0.012272   
     69. D(H  10,C   2,C   1,N   6)   -162.2078         0.012272   
     70. D(H  11,C   2,C   1,N   6)     76.2070         0.012272   
     71. D(H  11,C   2,C   1,C   5)    138.9784         0.012272   
     72. D(H  11,C   2,C   1,C   0)    -67.3373         0.012272   
     73. D(H  10,C   2,C   1,C   0)     54.2479         0.012272   
     74. D(C   4,O   3,C   2,H  11)   -158.5768         0.021066   
     75. D(C   4,O   3,C   2,H  10)     80.7338         0.021066   
     76. D(C   4,O   3,C   2,C   1)    -36.0350         0.021066   
     77. D(H  13,C   4,O   3,C   2)    -80.4170         0.020770   
     78. D(H  12,C   4,O   3,C   2)    158.7055         0.020770   
     79. D(C   5,C   4,O   3,C   2)     36.3546         0.020770   
     80. D(H  14,C   5,C   1,C   0)      1.4758         0.016511   
     81. D(N   6,C   5,C   1,C   2)   -103.6524         0.016511   
     82. D(N   6,C   5,C   1,C   0)    104.2088         0.016511   
     83. D(C   4,C   5,C   1,C   0)   -151.0063         0.016511   
     84. D(C   4,C   5,C   1,N   6)    104.7849         0.016511   
     85. D(H  14,C   5,C   1,C   2)    153.6147         0.016511   
     86. D(H  14,C   5,C   4,H  13)    -55.2742         0.013025   
     87. D(H  14,C   5,C   4,H  12)     67.0764         0.013025   
     88. D(N   6,C   5,C   4,H  13)    162.1284         0.013025   
     89. D(N   6,C   5,C   4,H  12)    -75.5210         0.013025   
     90. D(N   6,C   5,C   4,O   3)     42.5376         0.013025   
     91. D(C   1,C   5,C   4,H  13)     97.5174         0.013025   
     92. D(C   1,C   5,C   4,H  12)   -140.1320         0.013025   
     93. D(H  14,C   5,C   4,O   3)   -174.8650         0.013025   
     94. D(C   1,C   5,C   4,O   3)    -22.0734         0.013025   
     95. D(H  14,C   5,C   1,N   6)   -102.7330         0.016511   
     96. D(C   4,C   5,C   1,C   2)      1.1326         0.016511   
     97. D(H  16,N   6,C   5,H  14)   -136.3083         0.013683   
     98. D(H  16,N   6,C   5,C   4)      9.3637         0.013683   
     99. D(H  15,N   6,C   5,H  14)      9.0055         0.013683   
    100. D(H  15,N   6,C   5,C   4)    154.6776         0.013683   
    101. D(H  15,N   6,C   5,C   1)   -107.3345         0.013683   
    102. D(C   1,N   6,C   5,H  14)    116.3401         0.013683   
    103. D(C   1,N   6,C   5,C   4)    -97.9879         0.013683   
    104. D(H  16,N   6,C   1,C   5)   -105.7979         0.012330   
    105. D(H  16,N   6,C   1,C   2)     -9.6305         0.012330   
    106. D(H  16,N   6,C   1,C   0)    135.7508         0.012330   
    107. D(H  15,N   6,C   1,C   5)    107.9271         0.012330   
    108. D(H  15,N   6,C   1,C   2)   -155.9055         0.012330   
    109. D(H  16,N   6,C   5,C   1)    107.3516         0.013683   
    110. D(H  15,N   6,C   1,C   0)    -10.5242         0.012330   
    111. D(C   5,N   6,C   1,C   2)     96.1674         0.012330   
    112. D(C   5,N   6,C   1,C   0)   -118.4513         0.012330   
    -----------------------------------------------------------------

Number of atoms                         .... 17
Number of degrees of freedom            .... 112

         *************************************************************
         *                GEOMETRY OPTIMIZATION CYCLE   1            *
         *************************************************************


           ************************************************************
           *        Program running with 8 parallel MPI-processes     *
           *              working on a common directory               *
           ************************************************************
           ************************************************************
           *              Shut down parallel processing               *
           ************************************************************


           ************************************************************
           *        Program running with 8 parallel MPI-processes     *
           *              working on a common directory               *
           ************************************************************
------------
SCF SETTINGS
------------
Hamiltonian:
 Density Functional     Method          .... DFT(GTOs)
 Exchange Functional    Exchange        .... PBE
   PBE kappa parameter  XKappa          ....  0.804000
 Correlation Functional Correlation     .... PBE
 LDA part of GGA corr.  LDAOpt          .... PW91-LDA
 Gradients option       PostSCFGGA      .... off
 Hybrid DFT is turned on
   Fraction HF Exchange ScalHFX         ....  0.250000
   Scaling of DF-GGA-X  ScalDFX         ....  0.750000
   Scaling of DF-GGA-C  ScalDFC         ....  1.000000
   Scaling of DF-LDA-C  ScalLDAC        ....  1.000000
   Perturbative correction              ....  0.000000
   NL short-range parameter             ....  6.900000


General Settings:
 Integral files         IntName         .... 4617_+
 Hartree-Fock type      HFTyp           .... RHF
 Total Charge           Charge          ....    1
 Multiplicity           Mult            ....    1
 Number of Electrons    NEL             ....   54
 Basis Dimension        Dim             ....  277
 Nuclear Repulsion      ENuc            ....    339.1395108865 Eh

Convergence Acceleration:
 DIIS                   CNVDIIS         .... on
   Start iteration      DIISMaxIt       ....    12
   Startup error        DIISStart       ....  0.200000
   # of expansion vecs  DIISMaxEq       ....     5
   Bias factor          DIISBfac        ....   1.050
   Max. coefficient     DIISMaxC        ....  10.000
 Newton-Raphson         CNVNR           .... off
 SOSCF                  CNVSOSCF        .... on
   Start iteration      SOSCFMaxIt      ....   150
   Startup grad/error   SOSCFStart      ....  0.003300
 Level Shifting         CNVShift        .... on
   Level shift para.    LevelShift      ....    0.2500
   Turn off err/grad.   ShiftErr        ....    0.0010
 Zerner damping         CNVZerner       .... off
 Static damping         CNVDamp         .... on
   Fraction old density DampFac         ....    0.7000
   Max. Damping (<1)    DampMax         ....    0.9800
   Min. Damping (>=0)   DampMin         ....    0.0000
   Turn off err/grad.   DampErr         ....    0.1000
 Fernandez-Rico         CNVRico         .... off

SCF Procedure:
 Maximum # iterations   MaxIter         ....   125
 SCF integral mode      SCFMode         .... Direct
   Integral package                     .... LIBINT
 Reset frequeny         DirectResetFreq ....    20
 Integral Threshold     Thresh          ....  2.500e-11 Eh
 Primitive CutOff       TCut            ....  2.500e-12 Eh

Convergence Tolerance:
 Convergence Check Mode ConvCheckMode   .... Total+1el-Energy
 Energy Change          TolE            ....  1.000e-08 Eh
 1-El. energy change                    ....  1.000e-05 Eh
 Orbital Gradient       TolG            ....  1.000e-05
 Orbital Rotation angle TolX            ....  1.000e-05
 DIIS Error             TolErr          ....  5.000e-07


Diagonalization of the overlap matrix:
Smallest eigenvalue                        ... 6.490e-05
Time for diagonalization                   ...    0.024 sec
Threshold for overlap eigenvalues          ... 1.000e-08
Number of eigenvalues below threshold      ... 0
Time for construction of square roots      ...    0.014 sec
Total time needed                          ...    0.039 sec

-------------------
DFT GRID GENERATION
-------------------

General Integration Accuracy     IntAcc      ...  4.340
Radial Grid Type                 RadialGrid  ... Gauss-Chebyshev
Angular Grid (max. acc.)         AngularGrid ... Lebedev-194
Angular grid pruning method      GridPruning ... 3 (G Style)
Weight generation scheme         WeightScheme... Becke
Basis function cutoff            BFCut       ...    1.0000e-11
Integration weight cutoff        WCut        ...    1.0000e-14
Grids for H and He will be reduced by one unit

# of grid points (after initial pruning)     ...  38362 (   0.0 sec)
# of grid points (after weights+screening)   ...  34916 (   0.1 sec)
nearest neighbour list constructed           ...    0.0 sec
Grid point re-assignment to atoms done       ...    0.0 sec
Grid point division into batches done        ...    0.1 sec
Reduced shell lists constructed in    0.2 sec

Total number of grid points                  ...    34916
Total number of batches                      ...      555
Average number of points per batch           ...       62
Average number of grid points per atom       ...     2054
Average number of shells per batch           ...    98.11 (83.86%)
Average number of basis functions per batch  ...   243.72 (87.98%)
Average number of large shells per batch     ...    82.76 (84.35%)
Average number of large basis fcns per batch ...   205.18 (84.19%)
Maximum spatial batch extension              ...   2.25,  2.09,  2.43 au
Average spatial batch extension              ...   0.15,  0.15,  0.15 au

Time for grid setup =    0.235 sec

Loading Hartree-Fock densities                     ... done
Calculating cut-offs                               ... done
Setting up the integral package                    ... done
Initializing the effective Hamiltonian             ... done
Starting the Coulomb interaction                   ... done (   0.0 sec)
Reading the grid                                   ... done
Mapping shells                                     ... done
Starting the XC term evaluation                    ... done (   0.3 sec)
  promolecular density results
     # of electrons  =     54.994901416
     EX              =    -43.315216949
     EC              =     -1.845227515
     EX+EC           =    -45.160444464
Transforming the Hamiltonian                       ... done (   0.0 sec)
Diagonalizing the Hamiltonian                      ... done (   0.0 sec)
Back transforming the eigenvectors                 ... done (   0.0 sec)
Now organizing SCF variables                       ... done
--------------
SCF ITERATIONS
--------------
ITER       Energy         Delta-E        Max-DP      RMS-DP      [F,P]     Damp
               ***  Starting incremental Fock matrix formation  ***
  0   -325.8788087780   0.000000000000 0.04027336  0.00086039  0.1637811 0.7000
  1   -325.9292765371  -0.050467759096 0.03830124  0.00068939  0.0836991 0.7000
                               ***Turning on DIIS***
  2   -325.9519446005  -0.022668063426 0.06947926  0.00128915  0.0349902 0.0000
  3   -325.9873845965  -0.035439995944 0.02753738  0.00046545  0.0430058 0.0000
  4   -325.9942105460  -0.006825949503 0.00710308  0.00012101  0.0065015 0.0000
  5   -325.9944275592  -0.000217013187 0.00211592  0.00004708  0.0048957 0.0000
                      *** Initiating the SOSCF procedure ***
                           *** Shutting down DIIS ***
                      *** Re-Reading the Fockian *** 
                      *** Removing any level shift *** 
ITER      Energy       Delta-E        Grad      Rot      Max-DP    RMS-DP
  6   -325.99446285  -0.0000352862  0.000148  0.000148  0.000932  0.000023
               *** Restarting incremental Fock matrix formation ***
  7   -325.99446449  -0.0000016489  0.000037  0.000070  0.000238  0.000004
  8   -325.99446447   0.0000000260  0.000045  0.000034  0.000109  0.000002
  9   -325.99446462  -0.0000001507  0.000004  0.000006  0.000026  0.000000
 10   -325.99446462  -0.0000000004  0.000004  0.000003  0.000010  0.000000
                 **** Energy Check signals convergence ****
              ***Rediagonalizing the Fockian in SOSCF/NRSCF***

               *****************************************************
               *                     SUCCESS                       *
               *           SCF CONVERGED AFTER  11 CYCLES          *
               *****************************************************

Setting up the final grid:

General Integration Accuracy     IntAcc      ...  5.010
Radial Grid Type                 RadialGrid  ... Gauss-Chebyshev
Angular Grid (max. acc.)         AngularGrid ... Lebedev-434
Angular grid pruning method      GridPruning ... 3 (G Style)
Weight generation scheme         WeightScheme... Becke
Basis function cutoff            BFCut       ...    1.0000e-11
Integration weight cutoff        WCut        ...    1.0000e-14
Grids for H and He will be reduced by one unit

# of grid points (after initial pruning)     ... 141842 (   0.0 sec)
# of grid points (after weights+screening)   ... 127655 (   0.2 sec)
nearest neighbour list constructed           ...    0.0 sec
Grid point re-assignment to atoms done       ...    0.1 sec
Grid point division into batches done        ...    0.9 sec
Reduced shell lists constructed in    1.2 sec

Total number of grid points                  ...   127655
Total number of batches                      ...     2004
Average number of points per batch           ...       63
Average number of grid points per atom       ...     7509
Average number of shells per batch           ...    97.40 (83.25%)
Average number of basis functions per batch  ...   242.67 (87.61%)
Average number of large shells per batch     ...    81.35 (83.52%)
Average number of large basis fcns per batch ...   201.81 (83.16%)
Maximum spatial batch extension              ...   2.04,  2.51,  2.45 au
Average spatial batch extension              ...   0.10,  0.10,  0.10 au

Final grid set up in    1.4 sec
Final integration                            ... done (   0.9 sec)
Change in XC energy                          ...     0.000331362
Integrated number of electrons               ...    54.000004281
Previous integrated no of electrons          ...    53.999994698
Total Energy       :         -325.99413326 Eh           -8870.75135 eV
  Last Energy change         ...   -7.2896e-10  Tolerance :   1.0000e-08
  Last MAX-Density change    ...    4.9751e-06  Tolerance :   1.0000e-07
             **** THE GBW FILE WAS UPDATED (4617_+.gbw) ****
             **** DENSITY FILE WAS UPDATED (4617_+.scfp.tmp) ****
             **** ENERGY FILE WAS UPDATED (4617_+.en.tmp) ****
Total SCF time: 0 days 0 hours 1 min 20 sec 
           ************************************************************
           *              Shut down parallel processing               *
           ************************************************************

-------------------------   --------------------
FINAL SINGLE POINT ENERGY      -325.994133258629
-------------------------   --------------------



           ************************************************************
           *        Program running with 8 parallel MPI-processes     *
           *              working on a common directory               *
           ************************************************************
------------------------------------------------------------------------------
                         ORCA SCF GRADIENT CALCULATION
------------------------------------------------------------------------------

Gradient of the Kohn-Sham DFT energy:
Kohn-Sham wavefunction type      ... RKS
Hartree-Fock exchange scaling    ...    0.250
Number of operators              ...    1
Number of atoms                  ...   17
Basis set dimensions             ...  277
Integral neglect threshold       ... 2.5e-11
Integral primitive cutoff        ... 2.5e-12

Nuclear repulsion gradient       ... done
One Electron Gradient            ... done
Pre-screening matrix             ... done
Starting the two electron gradient:
Two electron gradient done
Exchange-correlation gradient    ... done

------------------
CARTESIAN GRADIENT
------------------

   1   C   :    0.000179909   -0.000029413    0.000004984
   2   C   :    0.000192954   -0.000038612   -0.000128951
   3   C   :   -0.000096649   -0.000003889    0.000006490
   4   O   :    0.000130822   -0.000034311   -0.000095225
   5   C   :    0.000138923    0.000118882    0.000044338
   6   C   :   -0.000129123   -0.000130919    0.000031919
   7   N   :   -0.000069581    0.000208709   -0.000038447
   8   H   :   -0.000032418    0.000039188    0.000063869
   9   H   :   -0.000005105   -0.000002034    0.000024395
  10   H   :   -0.000153684   -0.000037215   -0.000001144
  11   H   :    0.000076338    0.000061405    0.000004595
  12   H   :   -0.000063725   -0.000061559    0.000007704
  13   H   :   -0.000060205    0.000022024   -0.000025932
  14   H   :   -0.000168329   -0.000104038    0.000027384
  15   H   :   -0.000031123   -0.000051140   -0.000037886
  16   H   :    0.000038717    0.000006419    0.000087247
  17   H   :    0.000052280    0.000036503    0.000024661

Norm of the cartesian gradient     ...    0.000599029
RMS gradient                       ...    0.000083881
MAX gradient                       ...    0.000208709

-------
TIMINGS
-------

Total SCF gradient time            ...       39.685 sec

One electron gradient       ....       0.130 sec  (  0.3%)
Prescreening matrices       ....       0.521 sec  (  1.3%)
Two electron gradient       ....      33.403 sec  ( 84.2%)
XC gradient                 ....       4.606 sec  ( 11.6%)
           ************************************************************
           *              Shut down parallel processing               *
           ************************************************************
------------------------------------------------------------------------------
                         ORCA GEOMETRY RELAXATION STEP
------------------------------------------------------------------------------

Reading the OPT-File                    .... done
Getting information on internals        .... done
Copying old internal coords+grads       .... done
Making the new internal coordinates     .... (new redundants).... done
Validating the new internal coordinates .... (new redundants).... done
Calculating the B-matrix                .... done
Calculating the G,G- and P matrices     .... done
Transforming gradient to internals      .... done
Projecting the internal gradient        .... done
Number of atoms                         ....  17
Number of internal coordinates          .... 112
Current Energy                          ....  -325.994133259 Eh
Current gradient norm                   ....     0.000599029 Eh/bohr
Maximum allowed component of the step   ....  0.300
Current trust radius                    ....  0.300
Evaluating the initial hessian          ....  (Almloef) done
Projecting the Hessian                  .... done
Forming the augmented Hessian           .... done
Diagonalizing the augmented Hessian     .... done
Last element of RFO vector              ....  0.999993355
Lowest eigenvalues of augmented Hessian:
 -0.000000928  0.014796921  0.020634955  0.021188186  0.030590010
Length of the computed step             ....  0.003645685
The final length of the internal step   ....  0.003645685
Converting the step to cartesian space:
 Initial RMS(Int)=    0.0003444848
Transforming coordinates:
 Iter   0:  RMS(Cart)=    0.0005635833 RMS(Int)=    0.0003445048
 Iter   1:  RMS(Cart)=    0.0000001924 RMS(Int)=    0.0000001124
 Iter   2:  RMS(Cart)=    0.0000000001 RMS(Int)=    0.0000000001
done
Storing new coordinates                 .... done

                                .--------------------.
          ----------------------|Geometry convergence|---------------------
          Item                value                 Tolerance   Converged
          -----------------------------------------------------------------
          RMS gradient        0.00004034            0.00003000      NO
          MAX gradient        0.00019807            0.00010000      NO
          RMS step            0.00034448            0.00060000      YES
          MAX step            0.00098037            0.00100000      YES
          ....................................................
          Max(Bonds)      0.0003      Max(Angles)    0.02
          Max(Dihed)        0.06      Max(Improp)    0.00
          -----------------------------------------------------------------

The optimization has not yet converged - more geometry cycles are needed


    ---------------------------------------------------------------------------
                         Redundant Internal Coordinates
                            (Angstroem and degrees)

        Definition                    Value    dE/dq     Step     New-Value
    ----------------------------------------------------------------------------
     1. B(C   1,C   0)                1.4900 -0.000085  0.0001    1.4901   
     2. B(C   2,C   1)                1.5162 -0.000005  0.0000    1.5162   
     3. B(O   3,C   2)                1.4123 -0.000007  0.0000    1.4123   
     4. B(C   4,O   3)                1.4141 -0.000058  0.0001    1.4142   
     5. B(C   5,C   4)                1.5078 -0.000008  0.0000    1.5078   
     6. B(C   5,C   1)                1.4750  0.000010  0.0000    1.4750   
     7. B(N   6,C   1)                1.5052 -0.000039  0.0002    1.5054   
     8. B(N   6,C   5)                1.4906  0.000114 -0.0003    1.4903   
     9. B(H   7,C   0)                1.0913 -0.000082  0.0001    1.0915   
    10. B(H   8,C   0)                1.0914 -0.000006  0.0000    1.0914   
    11. B(H   9,C   0)                1.0919  0.000158 -0.0002    1.0917   
    12. B(H  10,C   2)                1.0974 -0.000081  0.0001    1.0976   
    13. B(H  11,C   2)                1.0909 -0.000073  0.0001    1.0910   
    14. B(H  12,C   4)                1.0905 -0.000066  0.0001    1.0906   
    15. B(H  13,C   4)                1.0975  0.000198 -0.0003    1.0972   
    16. B(H  14,C   5)                1.0824  0.000064 -0.0001    1.0823   
    17. B(H  15,N   6)                1.0133 -0.000054  0.0001    1.0134   
    18. B(H  16,N   6)                1.0184  0.000054 -0.0001    1.0184   
    19. A(H   8,C   0,H   9)          107.99  0.000016   -0.00    107.99   
    20. A(C   1,C   0,H   8)          111.05 -0.000022    0.00    111.05   
    21. A(C   1,C   0,H   9)          108.86 -0.000017    0.00    108.86   
    22. A(H   7,C   0,H   9)          107.63 -0.000004    0.00    107.63   
    23. A(C   1,C   0,H   7)          112.15  0.000014   -0.00    112.14   
    24. A(H   7,C   0,H   8)          109.03  0.000013   -0.00    109.02   
    25. A(C   2,C   1,C   5)          104.44 -0.000011    0.00    104.44   
    26. A(C   5,C   1,N   6)           60.01  0.000053   -0.02     60.00   
    27. A(C   0,C   1,C   5)          126.80 -0.000004   -0.00    126.80   
    28. A(C   2,C   1,N   6)          108.82 -0.000029    0.02    108.84   
    29. A(C   0,C   1,N   6)          118.01  0.000009   -0.02    117.99   
    30. A(C   0,C   1,C   2)          122.43  0.000002    0.00    122.43   
    31. A(O   3,C   2,H  11)          108.57  0.000005    0.00    108.58   
    32. A(H  10,C   2,H  11)          109.06 -0.000045    0.01    109.07   
    33. A(C   1,C   2,H  11)          114.42  0.000005   -0.00    114.42   
    34. A(O   3,C   2,H  10)          112.32  0.000015   -0.01    112.31   
    35. A(C   1,C   2,H  10)          107.92  0.000053   -0.01    107.91   
    36. A(C   1,C   2,O   3)          104.57 -0.000031    0.01    104.58   
    37. A(C   2,O   3,C   4)          107.69  0.000027    0.01    107.70   
    38. A(H  12,C   4,H  13)          109.14 -0.000017    0.00    109.15   
    39. A(C   5,C   4,H  13)          108.44  0.000032   -0.01    108.43   
    40. A(O   3,C   4,C   5)          103.39 -0.000024    0.01    103.40   
    41. A(O   3,C   4,H  12)          108.55 -0.000003    0.00    108.55   
    42. A(O   3,C   4,H  13)          112.49  0.000023   -0.01    112.48   
    43. A(C   5,C   4,H  12)          114.83 -0.000010    0.00    114.83   
    44. A(C   1,C   5,H  14)          123.99  0.000013    0.00    124.00   
    45. A(C   1,C   5,C   4)          106.52  0.000005    0.00    106.52   
    46. A(C   4,C   5,N   6)          110.60 -0.000027    0.01    110.61   
    47. A(C   1,C   5,N   6)           61.00 -0.000042    0.01     61.01   
    48. A(C   4,C   5,H  14)          123.09 -0.000011   -0.00    123.09   
    49. A(N   6,C   5,H  14)          115.52  0.000046   -0.02    115.51   
    50. A(C   1,N   6,C   5)           58.99 -0.000010    0.00     58.99   
    51. A(H  15,N   6,H  16)          116.00 -0.000039    0.01    116.01   
    52. A(C   5,N   6,H  16)          116.31  0.000016   -0.01    116.30   
    53. A(C   1,N   6,H  16)          117.22  0.000012    0.00    117.22   
    54. A(C   5,N   6,H  15)          118.34  0.000018   -0.00    118.34   
    55. A(C   1,N   6,H  15)          117.99  0.000023   -0.01    117.98   
    56. D(C   2,C   1,C   0,H   7)   -178.17 -0.000002    0.02   -178.15   
    57. D(C   2,C   1,C   0,H   9)    -59.19 -0.000009    0.02    -59.17   
    58. D(C   2,C   1,C   0,H   8)     59.57 -0.000012    0.02     59.59   
    59. D(N   6,C   1,C   0,H   7)     41.40  0.000037    0.00     41.41   
    60. D(C   5,C   1,C   0,H   9)     88.39 -0.000042    0.04     88.43   
    61. D(C   5,C   1,C   0,H   7)    -30.59 -0.000035    0.04    -30.56   
    62. D(N   6,C   1,C   0,H   9)    160.38  0.000030    0.01    160.39   
    63. D(C   5,C   1,C   0,H   8)   -152.85 -0.000046    0.04   -152.81   
    64. D(N   6,C   1,C   0,H   8)    -80.86  0.000027    0.01    -80.85   
    65. D(O   3,C   2,C   1,C   5)     20.33  0.000032   -0.02     20.31   
    66. D(H  10,C   2,C   1,C   5)    -99.44  0.000005   -0.01    -99.44   
    67. D(O   3,C   2,C   1,C   0)    174.02  0.000006   -0.01    174.01   
    68. D(O   3,C   2,C   1,N   6)    -42.44 -0.000018   -0.01    -42.45   
    69. D(H  10,C   2,C   1,N   6)   -162.21 -0.000045    0.01   -162.20   
    70. D(H  11,C   2,C   1,N   6)     76.21 -0.000029    0.00     76.21   
    71. D(H  11,C   2,C   1,C   5)    138.98  0.000021   -0.01    138.97   
    72. D(H  11,C   2,C   1,C   0)    -67.34 -0.000005    0.00    -67.34   
    73. D(H  10,C   2,C   1,C   0)     54.25 -0.000021    0.01     54.25   
    74. D(C   4,O   3,C   2,H  11)   -158.58 -0.000049    0.05   -158.53   
    75. D(C   4,O   3,C   2,H  10)     80.73 -0.000005    0.04     80.77   
    76. D(C   4,O   3,C   2,C   1)    -36.04 -0.000058    0.05    -35.98   
    77. D(H  13,C   4,O   3,C   2)    -80.42  0.000010   -0.05    -80.47   
    78. D(H  12,C   4,O   3,C   2)    158.71  0.000018   -0.05    158.66   
    79. D(C   5,C   4,O   3,C   2)     36.35  0.000044   -0.06     36.30   
    80. D(H  14,C   5,C   1,C   0)      1.48  0.000017   -0.02      1.46   
    81. D(N   6,C   5,C   1,C   2)   -103.65  0.000021   -0.02   -103.67   
    82. D(N   6,C   5,C   1,C   0)    104.21  0.000047   -0.03    104.18   
    83. D(C   4,C   5,C   1,C   0)   -151.01  0.000006   -0.03   -151.03   
    84. D(C   4,C   5,C   1,N   6)    104.78 -0.000040    0.01    104.79   
    85. D(H  14,C   5,C   1,C   2)    153.61 -0.000009   -0.00    153.61   
    86. D(H  14,C   5,C   4,H  13)    -55.27  0.000003    0.02    -55.25   
    87. D(H  14,C   5,C   4,H  12)     67.08 -0.000002    0.02     67.09   
    88. D(N   6,C   5,C   4,H  13)    162.13 -0.000026    0.05    162.17   
    89. D(N   6,C   5,C   4,H  12)    -75.52 -0.000031    0.04    -75.48   
    90. D(N   6,C   5,C   4,O   3)     42.54 -0.000056    0.05     42.59   
    91. D(C   1,C   5,C   4,H  13)     97.52  0.000022    0.03     97.55   
    92. D(C   1,C   5,C   4,H  12)   -140.13  0.000017    0.03   -140.10   
    93. D(H  14,C   5,C   4,O   3)   -174.87 -0.000026    0.03   -174.84   
    94. D(C   1,C   5,C   4,O   3)    -22.07 -0.000007    0.04    -22.04   
    95. D(H  14,C   5,C   1,N   6)   -102.73 -0.000030    0.02   -102.72   
    96. D(C   4,C   5,C   1,C   2)      1.13 -0.000019   -0.01      1.12   
    97. D(H  16,N   6,C   5,H  14)   -136.31 -0.000010    0.02   -136.29   
    98. D(H  16,N   6,C   5,C   4)      9.36 -0.000004    0.00      9.36   
    99. D(H  15,N   6,C   5,H  14)      9.01 -0.000030    0.03      9.03   
   100. D(H  15,N   6,C   5,C   4)    154.68 -0.000023    0.01    154.68   
   101. D(H  15,N   6,C   5,C   1)   -107.33 -0.000016    0.01   -107.32   
   102. D(C   1,N   6,C   5,H  14)    116.34 -0.000014    0.01    116.35   
   103. D(C   1,N   6,C   5,C   4)    -97.99 -0.000007   -0.01    -97.99   
   104. D(H  16,N   6,C   1,C   5)   -105.80 -0.000010    0.01   -105.79   
   105. D(H  16,N   6,C   1,C   2)     -9.63  0.000007   -0.00     -9.63   
   106. D(H  16,N   6,C   1,C   0)    135.75 -0.000018    0.01    135.76   
   107. D(H  15,N   6,C   1,C   5)    107.93  0.000008    0.00    107.93   
   108. D(H  15,N   6,C   1,C   2)   -155.91  0.000025   -0.01   -155.91   
   109. D(H  16,N   6,C   5,C   1)    107.35  0.000004    0.01    107.36   
   110. D(H  15,N   6,C   1,C   0)    -10.52  0.000000    0.00    -10.52   
   111. D(C   5,N   6,C   1,C   2)     96.17  0.000017   -0.01     96.16   
   112. D(C   5,N   6,C   1,C   0)   -118.45 -0.000008   -0.00   -118.45   
    ----------------------------------------------------------------------------

         *************************************************************
         *                GEOMETRY OPTIMIZATION CYCLE   2            *
         *************************************************************
---------------------------------
CARTESIAN COORDINATES (ANGSTROEM)
---------------------------------
  C     -0.728553    0.963402   -1.896047
  C     -0.195196    0.382361   -0.631773
  C     -0.607853    0.892483    0.735102
  O     -0.000796   -0.000042    1.645816
  C     -0.031028   -1.290429    1.067944
  C      0.191720   -1.021840   -0.398909
  N      1.260080   -0.000272   -0.588773
  H     -0.344769    0.449354   -2.779070
  H     -0.489403    2.025696   -1.970827
  H     -1.815454    0.861405   -1.900366
  H     -1.703626    0.862379    0.789892
  H     -0.267284    1.904161    0.960597
  H      0.737033   -1.901503    1.543378
  H     -1.005436   -1.780524    1.186776
  H      0.146782   -1.795250   -1.154712
  H      1.777325   -0.001389   -1.460210
  H      1.786410    0.262065    0.242631

----------------------------
CARTESIAN COORDINATES (A.U.)
----------------------------
  NO LB      ZA    FRAG    MASS        X           Y           Z
   0 C     6.0000    0    12.011         -1.376765454886110          1.820566621820181         -3.583010039210703
   1 C     6.0000    0    12.011         -0.368866225215170          0.722557195604352         -1.193877009432802
   2 C     6.0000    0    12.011         -1.148674801863188          1.686548492326981          1.389142129137136
   3 O     8.0000    0    15.999         -0.001504139636400         -0.000079456936470          3.110141688964904
   4 C     6.0000    0    12.011         -0.058634493568279         -2.438557724777277          2.018121383883454
   5 C     6.0000    0    12.011          0.362298452339188         -1.930997504099810         -0.753828572529925
   6 N     7.0000    0    14.007          2.381205967333055         -0.000513564387939         -1.112619664176935
   7 H     1.0000    0     1.008         -0.651519603259415          0.849156271354910         -5.251681936963261
   8 H     1.0000    0     1.008         -0.924837199104686          3.828011190487468         -3.724323757432030
   9 H     1.0000    0     1.008         -3.430710851911778          1.627819724367074         -3.591170599014706
  10 H     1.0000    0     1.008         -3.219386055706644          1.629660108144701          1.492679545159320
  11 H     1.0000    0     1.008         -0.505093771884456          3.598342833223990          1.815264409596247
  12 H     1.0000    0     1.008          1.392790381542408         -3.593320616342067          2.916562005935740
  13 H     1.0000    0     1.008         -1.899999116441490         -3.364703344902181          2.242680944919946
  14 H     1.0000    0     1.008          0.277378501347854         -3.392530271048931         -2.182090165718814
  15 H     1.0000    0     1.008          3.358658270089060         -0.002623885094206         -2.759397811504288
  16 H     1.0000    0     1.008          3.375825536288991          0.495231701157538          0.458505708773855

--------------------------------
INTERNAL COORDINATES (ANGSTROEM)
--------------------------------
 C      0   0   0   0.000000     0.000     0.000
 C      1   0   0   1.490124     0.000     0.000
 C      2   1   0   1.516198   122.430     0.000
 O      3   2   1   1.412274   104.580   174.008
 C      4   3   2   1.414196   107.695   324.016
 C      2   1   3   1.475028   126.801   147.596
 N      6   2   1   1.490316    61.012   104.175
 H      1   2   3   1.091451   112.142   181.846
 H      1   2   3   1.091445   111.052    59.592
 H      1   2   3   1.091685   108.862   300.830
 H      3   2   1   1.097555   107.909    54.253
 H      3   2   1   1.091021   114.415   292.664
 H      5   4   3   1.090581   108.546   158.659
 H      5   4   3   1.097172   112.477   279.534
 H      6   2   1   1.082322   123.996     1.457
 H      7   6   2   1.013384   118.340   252.678
 H      7   6   2   1.018369   116.300   107.358

---------------------------
INTERNAL COORDINATES (A.U.)
---------------------------
 C      0   0   0   0.000000     0.000     0.000
 C      1   0   0   2.815927     0.000     0.000
 C      2   1   0   2.865200   122.430     0.000
 O      3   2   1   2.668811   104.580   174.008
 C      4   3   2   2.672442   107.695   324.016
 C      2   1   3   2.787400   126.801   147.596
 N      6   2   1   2.816290    61.012   104.175
 H      1   2   3   2.062543   112.142   181.846
 H      1   2   3   2.062533   111.052    59.592
 H      1   2   3   2.062986   108.862   300.830
 H      3   2   1   2.074078   107.909    54.253
 H      3   2   1   2.061731   114.415   292.664
 H      5   4   3   2.060900   108.546   158.659
 H      5   4   3   2.073354   112.477   279.534
 H      6   2   1   2.045292   123.996     1.457
 H      7   6   2   1.915018   118.340   252.678
 H      7   6   2   1.924439   116.300   107.358



           ************************************************************
           *        Program running with 8 parallel MPI-processes     *
           *              working on a common directory               *
           ************************************************************
           ************************************************************
           *              Shut down parallel processing               *
           ************************************************************


           ************************************************************
           *        Program running with 8 parallel MPI-processes     *
           *              working on a common directory               *
           ************************************************************

Diagonalization of the overlap matrix:
Smallest eigenvalue                        ... 6.492e-05
Time for diagonalization                   ...    0.124 sec
Threshold for overlap eigenvalues          ... 1.000e-08
Number of eigenvalues below threshold      ... 0
Time for construction of square roots      ...    0.014 sec
Total time needed                          ...    0.139 sec

-------------------
DFT GRID GENERATION
-------------------

General Integration Accuracy     IntAcc      ...  4.340
Radial Grid Type                 RadialGrid  ... Gauss-Chebyshev
Angular Grid (max. acc.)         AngularGrid ... Lebedev-194
Angular grid pruning method      GridPruning ... 3 (G Style)
Weight generation scheme         WeightScheme... Becke
Basis function cutoff            BFCut       ...    1.0000e-11
Integration weight cutoff        WCut        ...    1.0000e-14
Grids for H and He will be reduced by one unit

# of grid points (after initial pruning)     ...  38362 (   0.0 sec)
# of grid points (after weights+screening)   ...  34914 (   0.1 sec)
nearest neighbour list constructed           ...    0.0 sec
Grid point re-assignment to atoms done       ...    0.0 sec
Grid point division into batches done        ...    0.1 sec
Reduced shell lists constructed in    0.2 sec

Total number of grid points                  ...    34914
Total number of batches                      ...      555
Average number of points per batch           ...       62
Average number of grid points per atom       ...     2054
Average number of shells per batch           ...    98.11 (83.86%)
Average number of basis functions per batch  ...   243.72 (87.98%)
Average number of large shells per batch     ...    82.76 (84.35%)
Average number of large basis fcns per batch ...   205.18 (84.19%)
Maximum spatial batch extension              ...   2.25,  2.09,  2.45 au
Average spatial batch extension              ...   0.15,  0.15,  0.15 au

Time for grid setup =    0.237 sec

--------------
SCF ITERATIONS
--------------
ITER       Energy         Delta-E        Max-DP      RMS-DP      [F,P]     Damp
               ***  Starting incremental Fock matrix formation  ***
                      *** Initiating the SOSCF procedure ***
                      *** Re-Reading the Fockian *** 
                      *** Removing any level shift *** 
ITER      Energy       Delta-E        Grad      Rot      Max-DP    RMS-DP
  0   -325.99446406 -325.9944640603  0.000063  0.000063  0.000187  0.000004
               *** Restarting incremental Fock matrix formation ***
  1   -325.99446452  -0.0000004630  0.000017  0.000039  0.000078  0.000002
  2   -325.99446457  -0.0000000426  0.000012  0.000020  0.000050  0.000001
  3   -325.99446457  -0.0000000042  0.000010  0.000008  0.000033  0.000001
                  ***Gradient check signals convergence***
              ***Rediagonalizing the Fockian in SOSCF/NRSCF***

               *****************************************************
               *                     SUCCESS                       *
               *           SCF CONVERGED AFTER   4 CYCLES          *
               *****************************************************

Setting up the final grid:

General Integration Accuracy     IntAcc      ...  5.010
Radial Grid Type                 RadialGrid  ... Gauss-Chebyshev
Angular Grid (max. acc.)         AngularGrid ... Lebedev-434
Angular grid pruning method      GridPruning ... 3 (G Style)
Weight generation scheme         WeightScheme... Becke
Basis function cutoff            BFCut       ...    1.0000e-11
Integration weight cutoff        WCut        ...    1.0000e-14
Grids for H and He will be reduced by one unit

# of grid points (after initial pruning)     ... 141842 (   0.0 sec)
# of grid points (after weights+screening)   ... 127657 (   0.2 sec)
nearest neighbour list constructed           ...    0.0 sec
Grid point re-assignment to atoms done       ...    0.1 sec
Grid point division into batches done        ...    0.9 sec
Reduced shell lists constructed in    1.2 sec

Total number of grid points                  ...   127657
Total number of batches                      ...     2004
Average number of points per batch           ...       63
Average number of grid points per atom       ...     7509
Average number of shells per batch           ...    97.44 (83.28%)
Average number of basis functions per batch  ...   242.77 (87.64%)
Average number of large shells per batch     ...    81.40 (83.53%)
Average number of large basis fcns per batch ...   201.95 (83.19%)
Maximum spatial batch extension              ...   2.05,  2.51,  2.45 au
Average spatial batch extension              ...   0.10,  0.10,  0.10 au

Final grid set up in    1.4 sec
Final integration                            ... done (   0.9 sec)
Change in XC energy                          ...     0.000330755
Integrated number of electrons               ...    54.000004440
Previous integrated no of electrons          ...    53.999989356
Total Energy       :         -325.99413382 Eh           -8870.75136 eV
  Last Energy change         ...   -6.3819e-09  Tolerance :   1.0000e-08
  Last MAX-Density change    ...    3.8881e-06  Tolerance :   1.0000e-07
             **** THE GBW FILE WAS UPDATED (4617_+.gbw) ****
             **** DENSITY FILE WAS UPDATED (4617_+.scfp.tmp) ****
             **** ENERGY FILE WAS UPDATED (4617_+.en.tmp) ****
Total SCF time: 0 days 0 hours 0 min 34 sec 
           ************************************************************
           *              Shut down parallel processing               *
           ************************************************************

-------------------------   --------------------
FINAL SINGLE POINT ENERGY      -325.994133820946
-------------------------   --------------------



           ************************************************************
           *        Program running with 8 parallel MPI-processes     *
           *              working on a common directory               *
           ************************************************************
------------------------------------------------------------------------------
                         ORCA SCF GRADIENT CALCULATION
------------------------------------------------------------------------------

Gradient of the Kohn-Sham DFT energy:
Kohn-Sham wavefunction type      ... RKS
Hartree-Fock exchange scaling    ...    0.250
Number of operators              ...    1
Number of atoms                  ...   17
Basis set dimensions             ...  277
Integral neglect threshold       ... 2.5e-11
Integral primitive cutoff        ... 2.5e-12

Nuclear repulsion gradient       ... done
One Electron Gradient            ... done
Pre-screening matrix             ... done
Starting the two electron gradient:
Two electron gradient done
Exchange-correlation gradient    ... done

------------------
CARTESIAN GRADIENT
------------------

   1   C   :    0.000006235    0.000006658    0.000020861
   2   C   :    0.000158342   -0.000028772   -0.000084686
   3   C   :   -0.000044175   -0.000028314   -0.000003115
   4   O   :    0.000052193   -0.000021052   -0.000009619
   5   C   :    0.000018770    0.000058587    0.000032856
   6   C   :   -0.000103662   -0.000105020   -0.000006826
   7   N   :   -0.000079076    0.000114175    0.000000449
   8   H   :   -0.000004533    0.000007340   -0.000001272
   9   H   :   -0.000011152    0.000003542    0.000012492
  10   H   :   -0.000004533   -0.000016046   -0.000000667
  11   H   :    0.000004148    0.000026796    0.000012661
  12   H   :   -0.000025075    0.000002589    0.000012715
  13   H   :   -0.000020215   -0.000014428    0.000004183
  14   H   :   -0.000009241   -0.000010816   -0.000005371
  15   H   :    0.000007075    0.000005698   -0.000005529
  16   H   :    0.000049869   -0.000003924    0.000022665
  17   H   :    0.000005030    0.000002986   -0.000001798

Norm of the cartesian gradient     ...    0.000303249
RMS gradient                       ...    0.000042463
MAX gradient                       ...    0.000158342

-------
TIMINGS
-------

Total SCF gradient time            ...       38.882 sec

One electron gradient       ....       0.130 sec  (  0.3%)
Prescreening matrices       ....       0.477 sec  (  1.2%)
Two electron gradient       ....      31.593 sec  ( 81.3%)
XC gradient                 ....       3.948 sec  ( 10.2%)
           ************************************************************
           *              Shut down parallel processing               *
           ************************************************************
------------------------------------------------------------------------------
                         ORCA GEOMETRY RELAXATION STEP
------------------------------------------------------------------------------

Reading the OPT-File                    .... done
Getting information on internals        .... done
Copying old internal coords+grads       .... done
Making the new internal coordinates     .... (new redundants).... done
Validating the new internal coordinates .... (new redundants).... done
Calculating the B-matrix                .... done
Calculating the G,G- and P matrices     .... done
Transforming gradient to internals      .... done
Projecting the internal gradient        .... done
Number of atoms                         ....  17
Number of internal coordinates          .... 112
Current Energy                          ....  -325.994133821 Eh
Current gradient norm                   ....     0.000303249 Eh/bohr
Maximum allowed component of the step   ....  0.300
Current trust radius                    ....  0.300
Updating the Hessian (BFGS)             .... done
Forming the augmented Hessian           .... done
Diagonalizing the augmented Hessian     .... done
Last element of RFO vector              ....  0.999993367
Lowest eigenvalues of augmented Hessian:
 -0.000000334  0.013496554  0.018415360  0.020973232  0.029739979
Length of the computed step             ....  0.003642136
The final length of the internal step   ....  0.003642136
Converting the step to cartesian space:
 Initial RMS(Int)=    0.0003441495
Transforming coordinates:
 Iter   0:  RMS(Cart)=    0.0005082745 RMS(Int)=    0.0003441612
 Iter   1:  RMS(Cart)=    0.0000001728 RMS(Int)=    0.0000001052
 Iter   2:  RMS(Cart)=    0.0000000001 RMS(Int)=    0.0000000001
done
Storing new coordinates                 .... done

                                .--------------------.
          ----------------------|Geometry convergence|---------------------
          Item                value                 Tolerance   Converged
          -----------------------------------------------------------------
          Energy change      -0.00000056            0.00000100      YES
          RMS gradient        0.00001373            0.00003000      YES
          MAX gradient        0.00004009            0.00010000      YES
          RMS step            0.00034415            0.00060000      YES
          MAX step            0.00106096            0.00100000      NO
          ....................................................
          Max(Bonds)      0.0002      Max(Angles)    0.02
          Max(Dihed)        0.06      Max(Improp)    0.00
          -----------------------------------------------------------------

       The energies and gradients are converged
       and the convergence on bond distances, angles, dihedrals and impropers
       is acceptable.
       Convergence will therefore be signaled now


                    ***********************HURRAY********************
                    ***        THE OPTIMIZATION HAS CONVERGED     ***
                    *************************************************


    ---------------------------------------------------------------------------
                         Redundant Internal Coordinates

                          --- Optimized Parameters ---  
                            (Angstroem and degrees)

        Definition                    OldVal   dE/dq     Step     FinalVal
    ----------------------------------------------------------------------------
     1. B(C   1,C   0)                1.4901 -0.000021  0.0001    1.4902   
     2. B(C   2,C   1)                1.5162  0.000033 -0.0001    1.5161   
     3. B(O   3,C   2)                1.4123  0.000010 -0.0000    1.4123   
     4. B(C   4,O   3)                1.4142 -0.000025  0.0001    1.4143   
     5. B(C   5,C   4)                1.5078  0.000019 -0.0000    1.5077   
     6. B(C   5,C   1)                1.4750  0.000004 -0.0000    1.4750   
     7. B(N   6,C   1)                1.5054 -0.000033  0.0002    1.5055   
     8. B(N   6,C   5)                1.4903  0.000040 -0.0002    1.4901   
     9. B(H   7,C   0)                1.0915 -0.000005  0.0000    1.0915   
    10. B(H   8,C   0)                1.0914 -0.000001  0.0000    1.0914   
    11. B(H   9,C   0)                1.0917  0.000008 -0.0001    1.0916   
    12. B(H  10,C   2)                1.0976 -0.000007  0.0000    1.0976   
    13. B(H  11,C   2)                1.0910 -0.000000  0.0000    1.0910   
    14. B(H  12,C   4)                1.0906 -0.000004  0.0000    1.0906   
    15. B(H  13,C   4)                1.0972  0.000012 -0.0001    1.0971   
    16. B(H  14,C   5)                1.0823 -0.000000 -0.0000    1.0823   
    17. B(H  15,N   6)                1.0134  0.000008 -0.0000    1.0134   
    18. B(H  16,N   6)                1.0184 -0.000001 -0.0000    1.0184   
    19. A(H   8,C   0,H   9)          107.99  0.000006   -0.00    107.99   
    20. A(C   1,C   0,H   8)          111.05 -0.000005    0.00    111.05   
    21. A(C   1,C   0,H   9)          108.86 -0.000016    0.01    108.87   
    22. A(H   7,C   0,H   9)          107.63 -0.000004    0.00    107.63   
    23. A(C   1,C   0,H   7)          112.14  0.000017   -0.01    112.14   
    24. A(H   7,C   0,H   8)          109.02  0.000002   -0.01    109.02   
    25. A(C   2,C   1,C   5)          104.44 -0.000009    0.01    104.45   
    26. A(C   5,C   1,N   6)           60.00  0.000023   -0.01     59.98   
    27. A(C   0,C   1,C   5)          126.80  0.000007   -0.00    126.80   
    28. A(C   2,C   1,N   6)          108.84 -0.000011    0.01    108.85   
    29. A(C   0,C   1,N   6)          117.99  0.000011   -0.02    117.97   
    30. A(C   0,C   1,C   2)          122.43 -0.000007    0.01    122.44   
    31. A(O   3,C   2,H  11)          108.58 -0.000004    0.00    108.58   
    32. A(H  10,C   2,H  11)          109.07 -0.000024    0.01    109.09   
    33. A(C   1,C   2,H  11)          114.42  0.000006   -0.00    114.41   
    34. A(O   3,C   2,H  10)          112.31  0.000002   -0.01    112.30   
    35. A(C   1,C   2,H  10)          107.91  0.000028   -0.01    107.89   
    36. A(C   1,C   2,O   3)          104.58 -0.000006    0.01    104.59   
    37. A(C   2,O   3,C   4)          107.70 -0.000000    0.01    107.71   
    38. A(H  12,C   4,H  13)          109.15 -0.000008    0.01    109.15   
    39. A(C   5,C   4,H  13)          108.43 -0.000002   -0.00    108.43   
    40. A(O   3,C   4,C   5)          103.40  0.000007    0.01    103.41   
    41. A(O   3,C   4,H  12)          108.55 -0.000006   -0.00    108.54   
    42. A(O   3,C   4,H  13)          112.48  0.000006   -0.00    112.47   
    43. A(C   5,C   4,H  12)          114.83  0.000004   -0.00    114.82   
    44. A(C   1,C   5,H  14)          124.00  0.000006    0.00    124.00   
    45. A(C   1,C   5,C   4)          106.52 -0.000002    0.00    106.53   
    46. A(C   4,C   5,N   6)          110.61 -0.000017    0.01    110.62   
    47. A(C   1,C   5,N   6)           61.01 -0.000023    0.01     61.03   
    48. A(C   4,C   5,H  14)          123.09  0.000003   -0.01    123.08   
    49. A(N   6,C   5,H  14)          115.51  0.000018   -0.01    115.50   
    50. A(C   1,N   6,C   5)           58.99  0.000000    0.00     58.99   
    51. A(H  15,N   6,H  16)          116.01 -0.000018    0.01    116.02   
    52. A(C   5,N   6,H  16)          116.30 -0.000003    0.00    116.30   
    53. A(C   1,N   6,H  16)          117.22  0.000000    0.00    117.23   
    54. A(C   5,N   6,H  15)          118.34  0.000013   -0.00    118.34   
    55. A(C   1,N   6,H  15)          117.98  0.000019   -0.02    117.96   
    56. D(C   2,C   1,C   0,H   7)   -178.15  0.000003    0.02   -178.13   
    57. D(C   2,C   1,C   0,H   9)    -59.17 -0.000003    0.03    -59.14   
    58. D(C   2,C   1,C   0,H   8)     59.59 -0.000008    0.03     59.62   
    59. D(N   6,C   1,C   0,H   7)     41.41  0.000018    0.02     41.43   
    60. D(C   5,C   1,C   0,H   9)     88.43 -0.000026    0.06     88.48   
    61. D(C   5,C   1,C   0,H   7)    -30.56 -0.000020    0.05    -30.51   
    62. D(N   6,C   1,C   0,H   9)    160.39  0.000012    0.02    160.41   
    63. D(C   5,C   1,C   0,H   8)   -152.81 -0.000031    0.06   -152.75   
    64. D(N   6,C   1,C   0,H   8)    -80.85  0.000007    0.03    -80.82   
    65. D(O   3,C   2,C   1,C   5)     20.31  0.000019   -0.03     20.28   
    66. D(H  10,C   2,C   1,C   5)    -99.44  0.000006   -0.02    -99.46   
    67. D(O   3,C   2,C   1,C   0)    174.01  0.000004   -0.01    174.00   
    68. D(O   3,C   2,C   1,N   6)    -42.45 -0.000002   -0.02    -42.46   
    69. D(H  10,C   2,C   1,N   6)   -162.20 -0.000015   -0.00   -162.21   
    70. D(H  11,C   2,C   1,N   6)     76.21 -0.000008   -0.01     76.20   
    71. D(H  11,C   2,C   1,C   5)    138.97  0.000013   -0.02    138.95   
    72. D(H  11,C   2,C   1,C   0)    -67.34 -0.000002    0.00    -67.34   
    73. D(H  10,C   2,C   1,C   0)     54.25 -0.000009    0.00     54.26   
    74. D(C   4,O   3,C   2,H  11)   -158.53 -0.000020    0.04   -158.49   
    75. D(C   4,O   3,C   2,H  10)     80.77  0.000011    0.03     80.80   
    76. D(C   4,O   3,C   2,C   1)    -35.98 -0.000019    0.05    -35.94   
    77. D(H  13,C   4,O   3,C   2)    -80.47  0.000006   -0.04    -80.51   
    78. D(H  12,C   4,O   3,C   2)    158.66  0.000016   -0.04    158.61   
    79. D(C   5,C   4,O   3,C   2)     36.30  0.000011   -0.04     36.26   
    80. D(H  14,C   5,C   1,C   0)      1.46  0.000018   -0.03      1.43   
    81. D(N   6,C   5,C   1,C   2)   -103.67  0.000005   -0.01   -103.68   
    82. D(N   6,C   5,C   1,C   0)    104.18  0.000025   -0.03    104.14   
    83. D(C   4,C   5,C   1,C   0)   -151.03  0.000003   -0.02   -151.05   
    84. D(C   4,C   5,C   1,N   6)    104.79 -0.000022    0.01    104.81   
    85. D(H  14,C   5,C   1,C   2)    153.61 -0.000002   -0.01    153.61   
    86. D(H  14,C   5,C   4,H  13)    -55.25 -0.000002    0.03    -55.23   
    87. D(H  14,C   5,C   4,H  12)     67.09 -0.000012    0.03     67.13   
    88. D(N   6,C   5,C   4,H  13)    162.17 -0.000014    0.04    162.21   
    89. D(N   6,C   5,C   4,H  12)    -75.48 -0.000023    0.04    -75.44   
    90. D(N   6,C   5,C   4,O   3)     42.59 -0.000024    0.04     42.63   
    91. D(C   1,C   5,C   4,H  13)     97.55  0.000014    0.02     97.57   
    92. D(C   1,C   5,C   4,H  12)   -140.10  0.000004    0.02   -140.08   
    93. D(H  14,C   5,C   4,O   3)   -174.84 -0.000012    0.03   -174.81   
    94. D(C   1,C   5,C   4,O   3)    -22.04  0.000004    0.02    -22.01   
    95. D(H  14,C   5,C   1,N   6)   -102.72 -0.000007    0.00   -102.71   
    96. D(C   4,C   5,C   1,C   2)      1.12 -0.000018    0.00      1.13   
    97. D(H  16,N   6,C   5,H  14)   -136.29 -0.000004    0.01   -136.28   
    98. D(H  16,N   6,C   5,C   4)      9.36  0.000002    0.00      9.37   
    99. D(H  15,N   6,C   5,H  14)      9.03 -0.000023    0.03      9.06   
   100. D(H  15,N   6,C   5,C   4)    154.68 -0.000016    0.02    154.70   
   101. D(H  15,N   6,C   5,C   1)   -107.32 -0.000017    0.02   -107.30   
   102. D(C   1,N   6,C   5,H  14)    116.35 -0.000006    0.01    116.36   
   103. D(C   1,N   6,C   5,C   4)    -97.99  0.000001   -0.00    -97.99   
   104. D(H  16,N   6,C   1,C   5)   -105.79  0.000003   -0.00   -105.79   
   105. D(H  16,N   6,C   1,C   2)     -9.63  0.000005   -0.00     -9.64   
   106. D(H  16,N   6,C   1,C   0)    135.76 -0.000008   -0.00    135.76   
   107. D(H  15,N   6,C   1,C   5)    107.93  0.000008    0.01    107.94   
   108. D(H  15,N   6,C   1,C   2)   -155.91  0.000010    0.00   -155.91   
   109. D(H  16,N   6,C   5,C   1)    107.36  0.000001    0.00    107.36   
   110. D(H  15,N   6,C   1,C   0)    -10.52 -0.000004    0.01    -10.52   
   111. D(C   5,N   6,C   1,C   2)     96.16  0.000002   -0.00     96.15   
   112. D(C   5,N   6,C   1,C   0)   -118.45 -0.000011   -0.00   -118.45   
    ----------------------------------------------------------------------------
                 *******************************************************
                 *** FINAL ENERGY EVALUATION AT THE STATIONARY POINT ***
                 ***               (AFTER    2 CYCLES)               ***
                 *******************************************************


           ************************************************************
           *        Program running with 8 parallel MPI-processes     *
           *              working on a common directory               *
           ************************************************************
           ************************************************************
           *              Shut down parallel processing               *
           ************************************************************


           ************************************************************
           *        Program running with 8 parallel MPI-processes     *
           *              working on a common directory               *
           ************************************************************
------------
SCF SETTINGS
------------
Hamiltonian:
 Density Functional     Method          .... DFT(GTOs)
 Exchange Functional    Exchange        .... PBE
   PBE kappa parameter  XKappa          ....  0.804000
 Correlation Functional Correlation     .... PBE
 LDA part of GGA corr.  LDAOpt          .... PW91-LDA
 Gradients option       PostSCFGGA      .... off
 Hybrid DFT is turned on
   Fraction HF Exchange ScalHFX         ....  0.250000
   Scaling of DF-GGA-X  ScalDFX         ....  0.750000
   Scaling of DF-GGA-C  ScalDFC         ....  1.000000
   Scaling of DF-LDA-C  ScalLDAC        ....  1.000000
   Perturbative correction              ....  0.000000
   NL short-range parameter             ....  6.900000


General Settings:
 Integral files         IntName         .... 4617_+
 Hartree-Fock type      HFTyp           .... RHF
 Total Charge           Charge          ....    1
 Multiplicity           Mult            ....    1
 Number of Electrons    NEL             ....   54
 Basis Dimension        Dim             ....  277
 Nuclear Repulsion      ENuc            ....    339.1221482880 Eh

Convergence Acceleration:
 DIIS                   CNVDIIS         .... on
   Start iteration      DIISMaxIt       ....    12
   Startup error        DIISStart       ....  0.200000
   # of expansion vecs  DIISMaxEq       ....     5
   Bias factor          DIISBfac        ....   1.050
   Max. coefficient     DIISMaxC        ....  10.000
 Newton-Raphson         CNVNR           .... off
 SOSCF                  CNVSOSCF        .... on
   Start iteration      SOSCFMaxIt      ....   150
   Startup grad/error   SOSCFStart      ....  0.003300
 Level Shifting         CNVShift        .... on
   Level shift para.    LevelShift      ....    0.2500
   Turn off err/grad.   ShiftErr        ....    0.0010
 Zerner damping         CNVZerner       .... off
 Static damping         CNVDamp         .... on
   Fraction old density DampFac         ....    0.7000
   Max. Damping (<1)    DampMax         ....    0.9800
   Min. Damping (>=0)   DampMin         ....    0.0000
   Turn off err/grad.   DampErr         ....    0.1000
 Fernandez-Rico         CNVRico         .... off

SCF Procedure:
 Maximum # iterations   MaxIter         ....   125
 SCF integral mode      SCFMode         .... Direct
   Integral package                     .... LIBINT
 Reset frequeny         DirectResetFreq ....    20
 Integral Threshold     Thresh          ....  2.500e-11 Eh
 Primitive CutOff       TCut            ....  2.500e-12 Eh

Convergence Tolerance:
 Convergence Check Mode ConvCheckMode   .... Total+1el-Energy
 Energy Change          TolE            ....  1.000e-08 Eh
 1-El. energy change                    ....  1.000e-05 Eh
 Orbital Gradient       TolG            ....  1.000e-05
 Orbital Rotation angle TolX            ....  1.000e-05
 DIIS Error             TolErr          ....  5.000e-07


Diagonalization of the overlap matrix:
Smallest eigenvalue                        ... 6.493e-05
Time for diagonalization                   ...    0.150 sec
Threshold for overlap eigenvalues          ... 1.000e-08
Number of eigenvalues below threshold      ... 0
Time for construction of square roots      ...    0.031 sec
Total time needed                          ...    0.181 sec

-------------------
DFT GRID GENERATION
-------------------

General Integration Accuracy     IntAcc      ...  4.340
Radial Grid Type                 RadialGrid  ... Gauss-Chebyshev
Angular Grid (max. acc.)         AngularGrid ... Lebedev-194
Angular grid pruning method      GridPruning ... 3 (G Style)
Weight generation scheme         WeightScheme... Becke
Basis function cutoff            BFCut       ...    1.0000e-11
Integration weight cutoff        WCut        ...    1.0000e-14
Grids for H and He will be reduced by one unit

# of grid points (after initial pruning)     ...  38362 (   0.0 sec)
# of grid points (after weights+screening)   ...  34914 (   0.1 sec)
nearest neighbour list constructed           ...    0.0 sec
Grid point re-assignment to atoms done       ...    0.0 sec
Grid point division into batches done        ...    0.1 sec
Reduced shell lists constructed in    0.2 sec

Total number of grid points                  ...    34914
Total number of batches                      ...      556
Average number of points per batch           ...       62
Average number of grid points per atom       ...     2054
Average number of shells per batch           ...    98.11 (83.86%)
Average number of basis functions per batch  ...   243.72 (87.98%)
Average number of large shells per batch     ...    82.76 (84.35%)
Average number of large basis fcns per batch ...   205.21 (84.20%)
Maximum spatial batch extension              ...   2.25,  2.09,  2.45 au
Average spatial batch extension              ...   0.15,  0.15,  0.15 au

Time for grid setup =    0.299 sec

--------------
SCF ITERATIONS
--------------
ITER       Energy         Delta-E        Max-DP      RMS-DP      [F,P]     Damp
               ***  Starting incremental Fock matrix formation  ***
                      *** Initiating the SOSCF procedure ***
                      *** Re-Reading the Fockian *** 
                      *** Removing any level shift *** 
ITER      Energy       Delta-E        Grad      Rot      Max-DP    RMS-DP
  0   -325.99446394 -325.9944639408  0.000045  0.000045  0.000108  0.000003
               *** Restarting incremental Fock matrix formation ***
  1   -325.99446432  -0.0000003746  0.000014  0.000030  0.000057  0.000002
  2   -325.99446435  -0.0000000344  0.000012  0.000017  0.000041  0.000001
  3   -325.99446435  -0.0000000019  0.000010  0.000008  0.000025  0.000001
                  ***Gradient check signals convergence***
              ***Rediagonalizing the Fockian in SOSCF/NRSCF***

               *****************************************************
               *                     SUCCESS                       *
               *           SCF CONVERGED AFTER   4 CYCLES          *
               *****************************************************

Setting up the final grid:

General Integration Accuracy     IntAcc      ...  5.010
Radial Grid Type                 RadialGrid  ... Gauss-Chebyshev
Angular Grid (max. acc.)         AngularGrid ... Lebedev-434
Angular grid pruning method      GridPruning ... 3 (G Style)
Weight generation scheme         WeightScheme... Becke
Basis function cutoff            BFCut       ...    1.0000e-11
Integration weight cutoff        WCut        ...    1.0000e-14
Grids for H and He will be reduced by one unit

# of grid points (after initial pruning)     ... 141842 (   0.0 sec)
# of grid points (after weights+screening)   ... 127661 (   0.2 sec)
nearest neighbour list constructed           ...    0.0 sec
Grid point re-assignment to atoms done       ...    0.1 sec
Grid point division into batches done        ...    0.9 sec
Reduced shell lists constructed in    1.3 sec

Total number of grid points                  ...   127661
Total number of batches                      ...     2004
Average number of points per batch           ...       63
Average number of grid points per atom       ...     7509
Average number of shells per batch           ...    97.42 (83.26%)
Average number of basis functions per batch  ...   242.72 (87.62%)
Average number of large shells per batch     ...    81.38 (83.54%)
Average number of large basis fcns per batch ...   201.85 (83.16%)
Maximum spatial batch extension              ...   2.05,  2.53,  2.45 au
Average spatial batch extension              ...   0.10,  0.10,  0.10 au

Final grid set up in    1.5 sec
Final integration                            ... done (   1.0 sec)
Change in XC energy                          ...     0.000330360
Integrated number of electrons               ...    54.000004622
Previous integrated no of electrons          ...    53.999985513
Total Energy       :         -325.99413400 Eh           -8870.75137 eV
  Last Energy change         ...   -5.5591e-09  Tolerance :   1.0000e-08
  Last MAX-Density change    ...    5.3338e-06  Tolerance :   1.0000e-07
             **** THE GBW FILE WAS UPDATED (4617_+.gbw) ****
             **** DENSITY FILE WAS UPDATED (4617_+.scfp.tmp) ****
             **** ENERGY FILE WAS UPDATED (4617_+.en.tmp) ****
Total SCF time: 0 days 0 hours 0 min 34 sec 
           ************************************************************
           *              Shut down parallel processing               *
           ************************************************************

-------------------------   --------------------
FINAL SINGLE POINT ENERGY      -325.994133997673
-------------------------   --------------------

                                *** OPTIMIZATION RUN DONE ***

                            ***************************************
                            *     ORCA property calculations      *
                            ***************************************

                                    ---------------------
                                    Active property flags
                                    ---------------------




           ************************************************************
           *        Program running with 8 parallel MPI-processes     *
           *              working on a common directory               *
           ************************************************************

-------------------------------------------------------------------------------
                               ORCA SCF HESSIAN
-------------------------------------------------------------------------------

Hessian of the Kohn-Sham DFT energy:
Kohn-Sham wavefunction type                      ... RKS
Hartree-Fock exchange scaling                    ...    0.250
Number of operators                              ...    1
Number of atoms                                  ...   17
Basis set dimensions                             ...  277
Integral neglect threshold                       ... 2.5e-11
Integral primitive cutoff                        ... 2.5e-12

Setting up DFT Hessian calculations              ... 
Electron density on the grid                     ... found on disk
Electron density on the final grid               ... found on disk
Building xc-kernel on the grid                   ... done   (      0.0 sec)
Building xc-kernel on the final grid             ... done   (      0.1 sec)
                                                     done   (      0.5 sec)

Nuclear repulsion Hessian                        ... done   (      0.0 sec)

[...]
     49      -0.206598   0.165150  -0.033565  -0.145472  -0.013439  -0.102293
     50       0.026276  -0.089169   0.026411   0.041273   0.060260  -0.135559
                 36         37         38         39         40         41    
      0      -0.028176  -0.012565  -0.007427  -0.002456   0.001479  -0.002301
      1      -0.032778   0.009841   0.003979   0.000265  -0.008362   0.000930
      2       0.014666   0.044021   0.004637   0.010247   0.005264  -0.002233
      3      -0.014455  -0.035681  -0.015237  -0.018274  -0.022215   0.001274
      4      -0.034962   0.052189   0.008865   0.023583   0.052903   0.000367
      5      -0.000397   0.005300   0.011987  -0.006736  -0.027864  -0.000016
      6       0.003895   0.021279  -0.028010  -0.032807   0.004424   0.069649
      7       0.001865  -0.030693   0.038069   0.047235  -0.007994  -0.019585
      8      -0.004114  -0.006557   0.010882   0.005331   0.017556  -0.011750
      9       0.001656   0.001618  -0.003185  -0.002315  -0.004602   0.000472
     10      -0.000090  -0.002826   0.012733  -0.000422  -0.002181  -0.001236
     11       0.001484   0.000958  -0.001600   0.006272  -0.000364   0.001110
     12      -0.000402  -0.002184   0.007718  -0.006989  -0.000085  -0.002786
     13      -0.007185   0.006726   0.049288  -0.055076   0.013380  -0.002446
     14      -0.003711   0.008106  -0.028217   0.022899   0.009115   0.002105
     15      -0.001375  -0.001575   0.005659  -0.001714   0.008738  -0.000197
     16       0.014637  -0.028482  -0.002313  -0.018383  -0.047936   0.000042
     17       0.001106   0.005337  -0.004344   0.004100   0.015241  -0.000158
     18       0.001659   0.005731   0.001962   0.004165   0.086852  -0.000600
     19       0.001836  -0.000118  -0.003672   0.001031   0.022508   0.000475
     20      -0.001650  -0.002234  -0.000786   0.001134  -0.004127   0.000411
     21       0.499282  -0.252731  -0.017829  -0.033448   0.015010  -0.011939
     22       0.462889   0.320276   0.098927   0.056156  -0.002983   0.014164
     23      -0.045106  -0.261280  -0.060173  -0.038615   0.006490   0.021618
     24       0.043367   0.546854   0.156282   0.111862   0.019180  -0.007744
     25      -0.073860  -0.138203  -0.038322  -0.028739  -0.008737  -0.031236
     26      -0.545635  -0.168788  -0.060228  -0.019950   0.040517   0.001537
     27      -0.040260   0.045928   0.007848   0.008236   0.000674   0.045563
     28       0.194958  -0.541872  -0.140945  -0.106173  -0.002244   0.004857
     29       0.418923  -0.115797   0.024864  -0.004607   0.022972  -0.001559
     30      -0.000179   0.010890  -0.009797  -0.014805   0.001500  -0.943458
     31       0.029435   0.206387  -0.446126  -0.470675  -0.006095  -0.038930
     32      -0.010934   0.024238  -0.121648  -0.105879  -0.054717   0.060076
     33      -0.034774  -0.207032   0.448682   0.469161   0.010369   0.109901
     34       0.000244   0.053806  -0.127212  -0.125042   0.009763   0.275695
     35       0.056198  -0.023187  -0.019335  -0.026758  -0.065597   0.057864
     36       0.018459   0.024276  -0.358196   0.358415   0.015304  -0.021187
     37       0.037075   0.004982  -0.338807   0.328902  -0.017687   0.014953
     38       0.020278  -0.039322   0.088480  -0.095884  -0.053972  -0.011985
     39      -0.016792  -0.007436   0.232984  -0.237132   0.003430   0.051673
     40       0.029747   0.003164  -0.356922   0.359492  -0.003745   0.019885
     41       0.002798  -0.050281   0.253322  -0.236900  -0.046212  -0.008464
     42       0.004849   0.014084   0.002463  -0.011207  -0.015895   0.000436
     43       0.004532  -0.004308   0.000191  -0.015775   0.019944   0.001228
     44       0.014122  -0.024275  -0.006195  -0.004870  -0.060867   0.000983
     45      -0.024735   0.056846   0.011007   0.028956  -0.568588  -0.001665
     46       0.002147   0.014208   0.001120   0.012548  -0.202602   0.000565
     47      -0.014705   0.026846   0.004641   0.014364  -0.375890   0.000769
     48      -0.015813   0.029121  -0.005731   0.040455  -0.523567  -0.002877
     49      -0.015094   0.013895   0.030633   0.009986  -0.087507  -0.001590
     50       0.013473  -0.022042  -0.007182  -0.023283   0.420303  -0.000560
                 42         43         44         45         46         47    
      0       0.000177   0.016487   0.005560  -0.001173  -0.070279   0.049221
      1       0.000040  -0.019292   0.004282  -0.000081   0.037199   0.077424
      2       0.000192   0.044051  -0.000170   0.000709   0.047770   0.014628
      3      -0.000017  -0.000281  -0.000992   0.000282  -0.001684   0.000868
      4       0.000129   0.000513   0.000176   0.000702   0.000774   0.000892
      5       0.000006  -0.000952   0.000743  -0.000920  -0.000008   0.000100
      6      -0.004905   0.004488  -0.047855   0.008449  -0.002408   0.003820
      7       0.001049  -0.000919  -0.073850   0.015742  -0.001810   0.005043
      8      -0.000107  -0.001010  -0.015606   0.002845  -0.000655   0.000810
      9       0.000201   0.000013   0.000525  -0.000600   0.000099  -0.000062
     10      -0.001354  -0.000076  -0.000146  -0.000423  -0.000029  -0.000040
     11      -0.000828   0.000105   0.000164  -0.000187  -0.000075  -0.000064
     12      -0.052296  -0.000187   0.015176   0.076542  -0.000542  -0.000487
     13      -0.047094   0.000074  -0.005087  -0.034306   0.000269   0.000136
     14       0.021510  -0.000016   0.006094   0.032516  -0.000150  -0.000178
     15      -0.001136  -0.000218  -0.000300   0.001089   0.000035   0.000334
     16       0.001024   0.000055   0.000325   0.001495  -0.000529  -0.000643
     17       0.001134  -0.000333  -0.000128   0.000085  -0.000404   0.000356
     18       0.000431  -0.000328   0.000222  -0.000236   0.000639  -0.000530
     19       0.000632   0.000124  -0.000171  -0.000159  -0.000254   0.000123
     20      -0.000710  -0.000007  -0.000382   0.000633   0.000323  -0.000353
     21       0.000824   0.216040   0.002330   0.002846   0.256429   0.112082
     22      -0.000921  -0.289260   0.000147  -0.004312  -0.353076  -0.122929
     23      -0.001183  -0.481460  -0.002884  -0.006470  -0.597928  -0.228224
     24       0.000377   0.131058  -0.010157   0.000730  -0.052897  -0.170507
     25       0.000933   0.565452  -0.046326   0.004679  -0.161555  -0.768584
     26      -0.000112  -0.032366   0.001733  -0.000056   0.020281   0.053907
     27      -0.003437  -0.539416  -0.056994   0.009714   0.638822  -0.531686
     28      -0.000478  -0.052835  -0.004659   0.001138   0.069468  -0.034922
     29       0.000080   0.003920   0.000641  -0.000241   0.011577   0.002099
     30       0.061736  -0.057215   0.275919  -0.044588   0.021424  -0.026915
     31      -0.001249  -0.001999   0.000150   0.001150   0.000247   0.000034
     32      -0.000791   0.004055  -0.024542   0.003987  -0.002364   0.002626
     33      -0.002898   0.004666   0.295564  -0.059131   0.007264  -0.020110
     34      -0.007142   0.012333   0.863358  -0.170724   0.021284  -0.059470
     35      -0.001385   0.003399   0.199392  -0.040008   0.004904  -0.015017
     36      -0.224892   0.001688  -0.127214  -0.661614   0.004455   0.004627
     37       0.159670  -0.001260   0.100738   0.518935  -0.003499  -0.003881
     38      -0.125753   0.001349  -0.079316  -0.413598   0.002619   0.002916
     39       0.847549   0.001043  -0.057245  -0.242351   0.001557   0.001410
     40       0.409339   0.000233  -0.028772  -0.127071   0.000917   0.000622
     41      -0.112196  -0.000348   0.009457   0.042443  -0.000419  -0.000170
     42      -0.001045   0.000870   0.000135  -0.001852   0.000708   0.000318
     43      -0.014745   0.001070   0.005985  -0.014338   0.003358  -0.000429
     44      -0.006782   0.002616   0.004796  -0.010394   0.004347   0.000486
     45       0.001615   0.003163   0.001804  -0.002345   0.003546   0.000150
     46       0.001193  -0.000905  -0.000604  -0.000947  -0.000751   0.000644
     47      -0.001345  -0.000103  -0.000704   0.001912   0.000012   0.000796
     48       0.004209   0.000698   0.002980  -0.003704   0.000453  -0.001551
     49       0.000556  -0.000169  -0.001713  -0.003593  -0.000200   0.000615
     50       0.001571   0.000005   0.002169  -0.003256  -0.001043  -0.000770
                  48         49         50    
      0      -0.000208  -0.000544   0.000025
      1       0.000337  -0.000049   0.000079
      2       0.000333   0.000221   0.000280
      3       0.001440   0.001005  -0.000127
      4      -0.002696   0.001242   0.000304
      5       0.000350  -0.000553   0.000392
      6      -0.000256  -0.000810  -0.000361
      7      -0.001497  -0.000175   0.000068
      8      -0.000227  -0.000156   0.000126
      9       0.000046   0.000189  -0.000152
     10      -0.000389   0.000096  -0.000036
     11      -0.000727   0.000255  -0.000034
     12      -0.000389  -0.000934  -0.000307
     13       0.001674  -0.000309  -0.000193
     14      -0.002768  -0.000136   0.000106
     15       0.003715   0.001080  -0.000269
     16       0.063817  -0.001367  -0.000837
     17       0.062247  -0.000414   0.000265
     18      -0.001293   0.049349   0.014450
     19      -0.001021   0.016251  -0.008887
     20      -0.001495   0.020726  -0.083393
     21       0.001530   0.000248   0.000587
     22      -0.001830  -0.000827  -0.001766
     23      -0.005432   0.000566  -0.001209
     24      -0.000270   0.000571  -0.000042
     25       0.000172   0.001240   0.000747
     26      -0.000791   0.000346   0.000191
     27       0.001651  -0.001265   0.000783
     28       0.000395   0.000805   0.000079
     29      -0.000387  -0.001930  -0.000448
     30       0.000194   0.003305  -0.001072
     31       0.000542  -0.000145   0.000680
     32       0.000506   0.001541   0.000889
     33       0.002981   0.001653   0.000007
     34       0.009194   0.002677  -0.000546
     35       0.001321   0.000140  -0.000227
     36       0.012636   0.003197  -0.000344
     37      -0.009852  -0.001648   0.000490
     38       0.009604   0.000918  -0.000455
     39      -0.008851   0.003678  -0.000821
     40      -0.004270   0.002651  -0.000946
     41       0.003835   0.001161   0.001156
     42      -0.038337  -0.004594   0.002014
     43      -0.707463  -0.000668   0.005314
     44      -0.699504   0.005305   0.004910
     45      -0.002586  -0.241917  -0.438157
     46       0.004802   0.002335   0.004159
     47       0.007924   0.422795   0.760175
     48      -0.002969  -0.451187   0.251030
     49      -0.005743  -0.225922   0.122760
     50       0.001059  -0.710528   0.380443


-----------
IR SPECTRUM
-----------

 Mode    freq (cm**-1)   T**2         TX         TY         TZ
-------------------------------------------------------------------
   6:       195.93    0.097945  ( -0.000010  -0.258109  -0.176989)
   7:       239.85    4.148649  (  1.550232   1.018156  -0.841896)
   8:       277.87   15.211161  ( -3.176148   0.450817   2.218110)
   9:       310.80    2.959396  (  0.504983   0.681240  -1.496764)
  10:       401.65    2.000320  ( -0.031618  -0.685591  -1.236643)
  11:       432.32    3.828214  (  0.176468   1.583292  -1.135895)
  12:       573.51    1.510944  (  0.806218  -0.499797  -0.781767)
  13:       664.21    3.562544  ( -0.904203   0.898993  -1.391679)
  14:       748.15    5.495479  ( -0.197074  -0.437086  -2.294689)
  15:       829.38   10.311920  (  2.956928   1.066823   0.656039)
  16:       880.84   22.124358  ( -3.553945   1.401841   2.743843)
  17:       911.14    0.047170  ( -0.011304  -0.093966  -0.195481)
  18:       924.24   20.030426  ( -0.466309   1.020994  -4.332500)
  19:       972.57   23.877587  ( -2.282326  -0.372905  -4.304593)
  20:       979.67   23.012776  (  1.809019  -4.420755  -0.444017)
  21:      1010.99   12.197731  ( -1.092209   3.120025  -1.127056)
  22:      1037.36    6.993677  (  2.568125  -0.529668  -0.343310)
  23:      1043.37   52.710954  ( -1.868200   6.986000  -0.645434)
  24:      1094.90    5.157855  (  1.560911  -1.386132  -0.894455)
  25:      1119.52   35.247193  (  0.828945   5.778120  -1.083225)
  26:      1132.16    3.304118  (  0.978401  -1.036587  -1.127979)
  27:      1154.26   44.013986  (  2.488148  -5.800672   2.043356)
  28:      1224.97   10.363870  ( -0.392916   3.168412  -0.413103)
  29:      1274.66    6.930306  ( -2.497943  -0.414908  -0.720027)
  30:      1299.13    2.519380  (  0.504417  -1.503551  -0.065422)
  31:      1302.64    2.530705  (  0.157688  -0.188888  -1.571675)
  32:      1348.85    1.398869  (  0.527256  -0.949245   0.468834)
  33:      1378.72    1.439808  ( -0.389389   0.775389  -0.828829)
  34:      1421.59    6.982693  ( -1.758127  -0.531228  -1.899863)
  35:      1454.40   10.456294  ( -0.376738   2.134960  -2.399231)
  36:      1475.99    9.573830  (  2.053982   2.275428   0.421207)
  37:      1487.34    8.533347  (  1.400626  -1.298488  -2.210322)
  38:      1495.03    6.869257  (  1.116112  -2.369636  -0.091530)
  39:      1507.96   10.512881  (  1.991604   0.096320  -2.556778)
  40:      1584.81   90.133225  ( -9.361452  -1.526798   0.406612)
  41:      3042.89   11.442811  (  2.487000  -1.976716   1.161998)
  42:      3048.56    9.198471  ( -1.238956  -2.755115  -0.269817)
  43:      3066.81    0.561804  ( -0.583373  -0.002624   0.470609)
  44:      3136.15    1.135402  ( -0.275171  -1.007135   0.212982)
  45:      3141.20    0.802924  (  0.771757  -0.453497   0.040687)
  46:      3148.66    1.209196  ( -0.107329   0.459181   0.993393)
  47:      3150.21    0.727830  ( -0.437206   0.726653  -0.093040)
  48:      3231.90    4.021217  ( -0.152144  -1.701866  -1.049628)
  49:      3475.26   87.294049  ( -8.733615  -2.090651  -2.578217)
  50:      3610.12  129.185157  ( -3.461453   0.862984  10.791606)

The first frequency considered to be a vibration is 6
The total number of vibrations considered is 45


--------------------------
THERMOCHEMISTRY AT 298.15K
--------------------------

Temperature         ... 298.15 K
Pressure            ... 1.00 atm
Total Mass          ... 100.14 AMU

Throughout the following assumptions are being made:
  (1) The electronic state is orbitally nondegenerate
  (2) There are no thermally accessible electronically excited states
  (3) Hindered rotations indicated by low frequency modes) are not
      treated as such but are treated as vibrations and this may
      case some error
  (4) All equations used are the standard statistical mechanics
      equations for an ideal gas
  (5) All vibrations are strinctly harmonic


------------
INNER ENERGY
------------

The inner energy is: U= E(el) + E(ZPE) + E(vib) + E(rot) + E(trans)
    E(el)   - is the total energy from the electronic structure calculation
              = E(kin-el) + E(nuc-el) + E(el-el) + E(nuc-nuc)
    E(ZPE)  - the the zero temperature vibrational energy from the frequency calculation
    E(vib)  - the the finite temperature correction to E(ZPE) due to population
              of excietd vibrational states
    E(rot)  - is the rotational thermal energy
    E(trans)- is the translational thermal energy

Summary of contributions to the inner energy U:
Electronic energy                ...   -325.99413400 Eh
Zero point energy                ...      0.15318983 Eh      96.13 kcal/mol
Thermal vibrational correction   ...      0.00351127 Eh       2.20 kcal/mol
Thermal rotational correction    ...      0.00141627 Eh       0.89 kcal/mol
Thermal translational correction ...      0.00141627 Eh       0.89 kcal/mol
-----------------------------------------------------------------------
Total thermal energy                   -325.83460035 Eh


Summary of corrections to the electronic energy:
(perhaps to be used in another calculation)
Total thermal correction                  0.00634381 Eh       3.98 kcal/mol
Non-thermal (ZPE) correction              0.15318983 Eh      96.13 kcal/mol
-----------------------------------------------------------------------
Total correction                          0.15953365 Eh     100.11 kcal/mol


--------
ENTHALPY
--------

The enthalpy is H = U + kB*T
                kB is Boltzmann's constant
Total free energy                 ...   -325.83460035 Eh 
Thermal Enthalpy correction       ...      0.00094421 Eh       0.59 kcal/mol
-----------------------------------------------------------------------
Total Enthalpy                    ...   -325.83365614 Eh


-------
ENTROPY
-------

The entropy contributions are T*S = T*(S(el)+S(vib)+S(rot)+S(trans)
     S(el)   - electronic entropy
     S(vib)  - vibrational entropy
     S(rot)  - rotational entropy
     S(trans)- translational entropy
The entropies will be listed as mutliplied by the temperature to get
units of energy

Electronic entropy                ...      0.00000000 Eh      0.00 kcal/mol
Vibrational entropy               ...      0.00537781 Eh      3.37 kcal/mol
Rotational entropy                ...      0.01173318 Eh      7.36 kcal/mol
Translational entropy             ...      0.01887324 Eh     11.84 kcal/mol
-----------------------------------------------------------------------
Final entropy term                ...      0.03598422 Eh     22.58 kcal/mol


CAUTION: The rotational entropy is not quite correctly treated here
         because it includes a symmetry number that is not yet correctly
         implemented in ORCA!
For a nonlinear molecule the correct rotational entropy is:
    S(rot) = R*(ln(qrot/sn)+1.5)
    R    = 8.31441 J/mol/K = 1.987191683e-3 kcal/mol/K
    qrot = 166949.8491350
    sn is the rotational symmetry number. We have assumed 3 here
       if it is different for your molecule then you should correct
       the printed rotational entropy by manually evaluating the equation
       as given above

For convenience we print out the resulting values for sn=1 - 12:
 sn= 1  qrot/sn=  166949.8491 T*S(rot)=     8.01 kcal/mol T*S(tot)=    23.23 kcal/mol
 sn= 2  qrot/sn=   83474.9246 T*S(rot)=     7.60 kcal/mol T*S(tot)=    22.82 kcal/mol
 sn= 3  qrot/sn=   55649.9497 T*S(rot)=     7.36 kcal/mol T*S(tot)=    22.58 kcal/mol
 sn= 4  qrot/sn=   41737.4623 T*S(rot)=     7.19 kcal/mol T*S(tot)=    22.41 kcal/mol
 sn= 5  qrot/sn=   33389.9698 T*S(rot)=     7.06 kcal/mol T*S(tot)=    22.28 kcal/mol
 sn= 6  qrot/sn=   27824.9749 T*S(rot)=     6.95 kcal/mol T*S(tot)=    22.17 kcal/mol
 sn= 7  qrot/sn=   23849.9784 T*S(rot)=     6.86 kcal/mol T*S(tot)=    22.08 kcal/mol
 sn= 8  qrot/sn=   20868.7311 T*S(rot)=     6.78 kcal/mol T*S(tot)=    22.00 kcal/mol
 sn= 9  qrot/sn=   18549.9832 T*S(rot)=     6.71 kcal/mol T*S(tot)=    21.93 kcal/mol
 sn=10  qrot/sn=   16694.9849 T*S(rot)=     6.65 kcal/mol T*S(tot)=    21.87 kcal/mol
 sn=11  qrot/sn=   15177.2590 T*S(rot)=     6.59 kcal/mol T*S(tot)=    21.81 kcal/mol
 sn=12  qrot/sn=   13912.4874 T*S(rot)=     6.54 kcal/mol T*S(tot)=    21.76 kcal/mol


-------------------
GIBBS FREE ENTHALPY
-------------------

The Gibbs free enthalpy is G = H - T*S

Total enthalpy                    ...   -325.83365614 Eh 
Total entropy correction          ...     -0.03598422 Eh    -22.58 kcal/mol
-----------------------------------------------------------------------
Final Gibbs free enthalpy         ...   -325.86964037 Eh

For completeness - the Gibbs free enthalpy minus the electronic energy
G-E(el)                           ...      0.12449363 Eh     78.12 kcal/mol


Timings for individual modules:

Sum of individual times         ...     2383.111 sec (=  39.719 min)
GTO integral calculation        ...        6.291 sec (=   0.105 min)   0.3 %
SCF iterations                  ...      156.174 sec (=   2.603 min)   6.6 %
SCF Gradient evaluation         ...       81.387 sec (=   1.356 min)   3.4 %
Geometry relaxation             ...        0.208 sec (=   0.003 min)   0.0 %
Analytical frequency calculation...     2139.050 sec (=  35.651 min)  89.8 %
                             ****ORCA TERMINATED NORMALLY****
TOTAL RUN TIME: 0 days 0 hours 39 minutes 44 seconds 888 msec
