
                                 *****************
                                 * O   R   C   A *
                                 *****************

           --- An Ab Initio, DFT and Semiempirical electronic structure package ---

                  #######################################################
                  #                        -***-                        #
                  #  Department of molecular theory and spectroscopy    #
                  #              Directorship: Frank Neese              #
                  # Max Planck Institute for Chemical Energy Conversion #
                  #                  D-45470 Muelheim/Ruhr              #
                  #                       Germany                       #
                  #                                                     #
                  #                  All rights reserved                #
                  #                        -***-                        #
                  #######################################################


                         Program Version 3.0.3 - RELEASE   -


 With contributions from (in alphabetic order):
   Ute Becker             : Parallelization
   Dmytro Bykov           : SCF Hessian
   Dmitry Ganyushin       : Spin-Orbit,Spin-Spin,Magnetic field MRCI
   Andreas Hansen         : Spin unrestricted coupled pair/coupled cluster methods
   Dimitrios Liakos       : Extrapolation schemes; parallel MDCI
   Robert Izsak           : Overlap fitted RIJCOSX, COSX-SCS-MP3
   Christian Kollmar      : KDIIS, OOCD, Brueckner-CCSD(T), CCSD density
   Simone Kossmann        : Meta GGA functionals, TD-DFT gradient, OOMP2, MP2 Hessian
   Taras Petrenko         : DFT Hessian,TD-DFT gradient, ASA and ECA modules, normal mode analysis, Resonance Raman, ABS, FL, XAS/XES, NRVS
   Christoph Reimann      : Effective Core Potentials
   Michael Roemelt        : Restricted open shell CIS
   Christoph Riplinger    : Improved optimizer, TS searches, QM/MM, DLPNO-CCSD
   Barbara Sandhoefer     : DKH picture change effects
   Igor Schapiro          : Molecular dynamics
   Kantharuban Sivalingam : CASSCF convergence, NEVPT2
   Boris Wezisla          : Elementary symmetry handling
   Frank Wennmohs         : Technical directorship


 We gratefully acknowledge several colleagues who have allowed us to
 interface, adapt or use parts of their codes:
   Stefan Grimme, W. Hujo, H. Kruse, T. Risthaus : VdW corrections, initial TS optimization,
                                                   DFT functionals, gCP
   Ed Valeev                                     : LibInt (2-el integral package), F12 methods
   Garnet Chan, S. Sharma, R. Olivares           : DMRG
   Ulf Ekstrom                                   : XCFun DFT Library
   Mihaly Kallay                                 : mrcc  (arbitrary order and MRCC methods)
   Andreas Klamt, Michael Diedenhofen            : otool_cosmo (COSMO solvation model)
   Frank Weinhold                                : gennbo (NPA and NBO analysis)
   Christopher J. Cramer and Donald G. Truhlar   : smd solvation model


 Your calculation uses the libint2 library for the computation of 2-el integrals
 For citations please refer to: http://libint.valeyev.net

 This ORCA versions uses:
   CBLAS   interface :  Fast vector & matrix operations
   LAPACKE interface :  Fast linear algebra routines
   SCALAPACK package :  Parallel linear algebra routines


Your calculation utilizes the basis: Ahlrichs-TZV
Cite in your paper:
H - Kr: A. Schaefer, H. Horn and R. Ahlrichs, J. Chem. Phys. 97, 2571 (1992).

The def2-TZV basis will be loaded
Cite in your paper:
 	F. Weigend, R. Ahlrichs, Phys. Chem. Chem. Phys. 2005, 7, 3297.

================================================================================
                                        WARNINGS
                       Please study these warnings very carefully!
================================================================================
Now building the actual basis set
WARNING: Geometry optimizations can change the point-group symmetry!

WARNING: Geometry Optimization
  ===> : Switching off AutoStart
         For restart on a previous wavefunction, please use MOREAD


INFO   : the flag for use of LIBINT has been found!

================================================================================
                                       INPUT FILE
================================================================================
NAME = 4652_+.inp
|  1> ! NORI PBE0 def2-TZVP UseSym TightOPT Freq TightSCF Grid3 FinalGrid5 XYZFile
|  2> % pal
|  3>     nprocs 8
|  4> end
|  5> %method
|  6>     SymThresh 5.0e-2
|  7> end
|  8> % geom 
|  9>     MaxIter 10
| 10> end 
| 11> % maxcore 2000
| 12> % output
| 13>     printlevel mini
| 14>     print[ P_Basis ] 0
| 15>     print[ P_SCFInfo ] 1
| 16>     print[ P_SCFIterInfo ] 1
| 17>     print[ P_OrbEn ] 0
| 18>     print[ P_Cartesian ] 0
| 19> end
| 20> % elprop
| 21>     Dipole false
| 22> end
| 23> *xyz 1 1
| 24>  C        1.1779634460     0.0846466847     0.0027427214 
| 25>  C        2.6398492883    -0.0820893601    -0.0647837557 
| 26>  C        3.4000980737    -1.1926301524    -0.0473784208 
| 27>  C        4.8187363797    -0.7784376269    -0.0865058998 
| 28>  N        5.4499964950    -0.9451927386     1.3248118014 
| 29>  C        4.7008157507     0.6948245256    -0.4558112707 
| 30>  O        3.3545256753     1.0597467400    -0.1672346239 
| 31>  H        0.9147880107     0.7464687429     0.8317378278 
| 32>  H        0.6807202813    -0.8741243136     0.1326116117 
| 33>  H        0.8168378891     0.5582702079    -0.9136936658 
| 34>  H        3.0404622215    -2.2092621698    -0.0119574576 
| 35>  H        5.4850038570    -1.3407594484    -0.7413734119 
| 36>  H        4.9031779044    -0.4156707899     2.0067712878 
| 37>  H        6.4221473595    -0.6301117218     1.3636941554 
| 38>  H        5.4197239297    -1.9265333151     1.6071293885 
| 39>  H        5.3726658315     1.3678292356     0.0809038235 
| 40>  H        4.8709076067     0.8121955000    -1.5287241113 
| 41> *
| 42> 
| 43>                          ****END OF INPUT****
================================================================================

The point group is C1 - hence turning off symmetry
If this is a round-off problem, please increase the symmetry
        detection tolerance (%method SymThresh)


                       *****************************
                       * Geometry Optimization Run *
                       *****************************

Geometry optimization settings:
Update method            Update   .... BFGS
Choice of coordinates    CoordSys .... Redundant Internals
Initial Hessian          InHess   .... Almoef's Model

Convergence Tolerances:
Energy Change            TolE     ....  1.0000e-06 Eh
Max. Gradient            TolMAXG  ....  1.0000e-04 Eh/bohr
RMS Gradient             TolRMSG  ....  3.0000e-05 Eh/bohr
Max. Displacement        TolMAXD  ....  1.0000e-03 bohr
RMS Displacement         TolRMSD  ....  6.0000e-04 bohr

------------------------------------------------------------------------------
                        ORCA OPTIMIZATION COORDINATE SETUP
------------------------------------------------------------------------------

The optimization will be done in new redundant internal coordinates
Making redundant internal coordinates   ...  (new redundants) done
Evaluating the initial hessian          ...  (Almloef) done
Evaluating the coordinates              ...  done
Calculating the B-matrix                .... done
Calculating the G-matrix                .... done
Diagonalizing the G-matrix              .... done
The first mode is                       ....   42
The number of degrees of freedom        ....   45

    -----------------------------------------------------------------
                    Redundant Internal Coordinates


    -----------------------------------------------------------------
         Definition                    Initial Value    Approx d2E/dq
    -----------------------------------------------------------------
      1. B(C   1,C   0)                  1.4729         0.460741   
      2. B(C   2,C   1)                  1.3460         0.734543   
      3. B(C   3,C   2)                  1.4784         0.451572   
      4. B(N   4,C   3)                  1.5550         0.305199   
      5. B(C   5,C   3)                  1.5234         0.382722   
      6. B(O   6,C   5)                  1.4244         0.493149   
      7. B(O   6,C   1)                  1.3509         0.645933   
      8. B(H   7,C   0)                  1.0929         0.356241   
      9. B(H   8,C   0)                  1.0878         0.362992   
     10. B(H   9,C   0)                  1.0930         0.356191   
     11. B(H  10,C   2)                  1.0790         0.375018   
     12. B(H  11,C   3)                  1.0904         0.359573   
     13. B(H  12,N   4)                  1.0220         0.414055   
     14. B(H  13,N   4)                  1.0227         0.413021   
     15. B(H  14,N   4)                  1.0216         0.414669   
     16. B(H  15,C   5)                  1.0920         0.357514   
     17. B(H  16,C   5)                  1.0926         0.356632   
     18. A(C   1,C   0,H   8)          111.0620         0.336205   
     19. A(H   7,C   0,H   9)          107.0992         0.289851   
     20. A(C   1,C   0,H   7)          110.0181         0.335157   
     21. A(H   8,C   0,H   9)          109.3295         0.290706   
     22. A(H   7,C   0,H   8)          109.4562         0.290713   
     23. A(C   1,C   0,H   9)          109.7884         0.335149   
     24. A(C   2,C   1,O   6)          113.5502         0.447927   
     25. A(C   0,C   1,O   6)          115.6490         0.411968   
     26. A(C   0,C   1,C   2)          130.8002         0.424261   
     27. A(C   3,C   2,H  10)          125.7820         0.336905   
     28. A(C   1,C   2,H  10)          126.1282         0.365763   
     29. A(C   1,C   2,C   3)          108.0899         0.422739   
     30. A(C   2,C   3,N   4)          109.6016         0.360323   
     31. A(C   5,C   3,H  11)          113.6051         0.325532   
     32. A(N   4,C   3,C   5)          110.8023         0.350352   
     33. A(N   4,C   3,H  11)          103.9883         0.311871   
     34. A(C   2,C   3,H  11)          117.2420         0.334556   
     35. A(C   2,C   3,C   5)          101.7172         0.376954   
     36. A(H  13,N   4,H  14)          108.2774         0.298977   
     37. A(H  12,N   4,H  14)          107.3047         0.299096   
     38. A(C   3,N   4,H  14)          109.9861         0.316497   
     39. A(H  12,N   4,H  13)          108.8816         0.298907   
     40. A(C   3,N   4,H  13)          112.7903         0.316292   
     41. A(C   3,N   4,H  12)          109.4419         0.316421   
     42. A(O   6,C   5,H  16)          108.5753         0.336978   
     43. A(C   3,C   5,H  16)          109.2614         0.325093   
     44. A(O   6,C   5,H  15)          108.9080         0.337117   
     45. A(C   3,C   5,H  15)          115.4205         0.325225   
     46. A(C   3,C   5,O   6)          105.7717         0.380335   
     47. A(H  15,C   5,H  16)          108.7027         0.290070   
     48. A(C   1,O   6,C   5)          107.3876         0.414276   
     49. D(C   2,C   1,C   0,H   8)      3.0866         0.015650   
     50. D(O   6,C   1,C   0,H   9)     61.7412         0.015650   
     51. D(O   6,C   1,C   0,H   8)   -177.2269         0.015650   
     52. D(C   2,C   1,C   0,H   7)    124.4316         0.015650   
     53. D(O   6,C   1,C   0,H   7)    -55.8820         0.015650   
     54. D(C   2,C   1,C   0,H   9)   -117.9453         0.015650   
     55. D(C   3,C   2,C   1,C   0)   -177.7243         0.038327   
     56. D(H  10,C   2,C   1,O   6)   -177.3667         0.038327   
     57. D(H  10,C   2,C   1,C   0)      2.3250         0.038327   
     58. D(C   3,C   2,C   1,O   6)      2.5840         0.038327   
     59. D(C   5,C   3,C   2,H  10)    167.2113         0.015037   
     60. D(C   5,C   3,C   2,C   1)    -12.7395         0.015037   
     61. D(H  11,C   3,C   2,C   1)   -137.2638         0.015037   
     62. D(N   4,C   3,C   2,H  10)    -75.4743         0.015037   
     63. D(N   4,C   3,C   2,C   1)    104.5749         0.015037   
     64. D(H  11,C   3,C   2,H  10)     42.6870         0.015037   
     65. D(H  14,N   4,C   3,H  11)    -64.4066         0.008770   
     66. D(H  14,N   4,C   3,C   5)    173.1759         0.008770   
     67. D(H  13,N   4,C   3,H  11)     56.5767         0.008770   
     68. D(H  13,N   4,C   3,C   5)    -65.8409         0.008770   
     69. D(H  13,N   4,C   3,C   2)   -177.3038         0.008770   
     70. D(H  14,N   4,C   3,C   2)     61.7130         0.008770   
     71. D(H  12,N   4,C   3,H  11)    177.9460         0.008770   
     72. D(H  12,N   4,C   3,C   5)     55.5284         0.008770   
     73. D(H  12,N   4,C   3,C   2)    -55.9345         0.008770   
     74. D(H  15,C   5,C   3,N   4)     22.1107         0.011666   
     75. D(H  15,C   5,C   3,C   2)    138.5535         0.011666   
     76. D(O   6,C   5,C   3,H  11)    145.0137         0.011666   
     77. D(O   6,C   5,C   3,N   4)    -98.3573         0.011666   
     78. D(H  15,C   5,C   3,H  11)    -94.5183         0.011666   
     79. D(O   6,C   5,C   3,C   2)     18.0854         0.011666   
     80. D(H  16,C   5,C   3,H  11)     28.3126         0.011666   
     81. D(H  16,C   5,C   3,N   4)    144.9416         0.011666   
     82. D(H  16,C   5,C   3,C   2)    -98.6156         0.011666   
     83. D(C   1,O   6,C   5,H  16)     99.7004         0.019211   
     84. D(C   1,O   6,C   5,H  15)   -142.0909         0.019211   
     85. D(C   1,O   6,C   5,C   3)    -17.4635         0.019211   
     86. D(C   5,O   6,C   1,C   2)      9.8110         0.030804   
     87. D(C   5,O   6,C   1,C   0)   -169.9301         0.030804   
    -----------------------------------------------------------------

Number of atoms                         .... 17
Number of degrees of freedom            .... 87

         *************************************************************
         *                GEOMETRY OPTIMIZATION CYCLE   1            *
         *************************************************************


           ************************************************************
           *        Program running with 8 parallel MPI-processes     *
           *              working on a common directory               *
           ************************************************************
           ************************************************************
           *              Shut down parallel processing               *
           ************************************************************


           ************************************************************
           *        Program running with 8 parallel MPI-processes     *
           *              working on a common directory               *
           ************************************************************
------------
SCF SETTINGS
------------
Hamiltonian:
 Density Functional     Method          .... DFT(GTOs)
 Exchange Functional    Exchange        .... PBE
   PBE kappa parameter  XKappa          ....  0.804000
 Correlation Functional Correlation     .... PBE
 LDA part of GGA corr.  LDAOpt          .... PW91-LDA
 Gradients option       PostSCFGGA      .... off
 Hybrid DFT is turned on
   Fraction HF Exchange ScalHFX         ....  0.250000
   Scaling of DF-GGA-X  ScalDFX         ....  0.750000
   Scaling of DF-GGA-C  ScalDFC         ....  1.000000
   Scaling of DF-LDA-C  ScalLDAC        ....  1.000000
   Perturbative correction              ....  0.000000
   NL short-range parameter             ....  6.900000


General Settings:
 Integral files         IntName         .... 4652_+
 Hartree-Fock type      HFTyp           .... RHF
 Total Charge           Charge          ....    1
 Multiplicity           Mult            ....    1
 Number of Electrons    NEL             ....   54
 Basis Dimension        Dim             ....  277
 Nuclear Repulsion      ENuc            ....    324.4075168381 Eh

Convergence Acceleration:
 DIIS                   CNVDIIS         .... on
   Start iteration      DIISMaxIt       ....    12
   Startup error        DIISStart       ....  0.200000
   # of expansion vecs  DIISMaxEq       ....     5
   Bias factor          DIISBfac        ....   1.050
   Max. coefficient     DIISMaxC        ....  10.000
 Newton-Raphson         CNVNR           .... off
 SOSCF                  CNVSOSCF        .... on
   Start iteration      SOSCFMaxIt      ....   150
   Startup grad/error   SOSCFStart      ....  0.003300
 Level Shifting         CNVShift        .... on
   Level shift para.    LevelShift      ....    0.2500
   Turn off err/grad.   ShiftErr        ....    0.0010
 Zerner damping         CNVZerner       .... off
 Static damping         CNVDamp         .... on
   Fraction old density DampFac         ....    0.7000
   Max. Damping (<1)    DampMax         ....    0.9800
   Min. Damping (>=0)   DampMin         ....    0.0000
   Turn off err/grad.   DampErr         ....    0.1000
 Fernandez-Rico         CNVRico         .... off

SCF Procedure:
 Maximum # iterations   MaxIter         ....   125
 SCF integral mode      SCFMode         .... Direct
   Integral package                     .... LIBINT
 Reset frequeny         DirectResetFreq ....    20
 Integral Threshold     Thresh          ....  2.500e-11 Eh
 Primitive CutOff       TCut            ....  2.500e-12 Eh

Convergence Tolerance:
 Convergence Check Mode ConvCheckMode   .... Total+1el-Energy
 Energy Change          TolE            ....  1.000e-08 Eh
 1-El. energy change                    ....  1.000e-05 Eh
 Orbital Gradient       TolG            ....  1.000e-05
 Orbital Rotation angle TolX            ....  1.000e-05
 DIIS Error             TolErr          ....  5.000e-07


Diagonalization of the overlap matrix:
Smallest eigenvalue                        ... 7.109e-05
Time for diagonalization                   ...    0.023 sec
Threshold for overlap eigenvalues          ... 1.000e-08
Number of eigenvalues below threshold      ... 0
Time for construction of square roots      ...    0.008 sec
Total time needed                          ...    0.031 sec

-------------------
DFT GRID GENERATION
-------------------

General Integration Accuracy     IntAcc      ...  4.340
Radial Grid Type                 RadialGrid  ... Gauss-Chebyshev
Angular Grid (max. acc.)         AngularGrid ... Lebedev-194
Angular grid pruning method      GridPruning ... 3 (G Style)
Weight generation scheme         WeightScheme... Becke
Basis function cutoff            BFCut       ...    1.0000e-11
Integration weight cutoff        WCut        ...    1.0000e-14
Grids for H and He will be reduced by one unit

# of grid points (after initial pruning)     ...  38362 (   0.0 sec)
# of grid points (after weights+screening)   ...  35235 (   0.0 sec)
nearest neighbour list constructed           ...    0.0 sec
Grid point re-assignment to atoms done       ...    0.0 sec
Grid point division into batches done        ...    0.1 sec
Reduced shell lists constructed in    0.1 sec

Total number of grid points                  ...    35235
Total number of batches                      ...      559
Average number of points per batch           ...       63
Average number of grid points per atom       ...     2073
Average number of shells per batch           ...    92.04 (78.67%)
Average number of basis functions per batch  ...   228.07 (82.34%)
Average number of large shells per batch     ...    76.48 (83.09%)
Average number of large basis fcns per batch ...   189.66 (83.16%)
Maximum spatial batch extension              ...   4.86,  4.35,  3.00 au
Average spatial batch extension              ...   0.19,  0.18,  0.18 au

Time for grid setup =    0.173 sec

Loading Hartree-Fock densities                     ... done
Calculating cut-offs                               ... done
Setting up the integral package                    ... done
Initializing the effective Hamiltonian             ... done
Starting the Coulomb interaction                   ... done (   0.0 sec)
Reading the grid                                   ... done
Mapping shells                                     ... done
Starting the XC term evaluation                    ... done (   0.2 sec)
  promolecular density results
     # of electrons  =     54.993757308
     EX              =    -43.285882059
     EC              =     -1.827622070
     EX+EC           =    -45.113504129
Transforming the Hamiltonian                       ... done (   0.0 sec)
Diagonalizing the Hamiltonian                      ... done (   0.0 sec)
Back transforming the eigenvectors                 ... done (   0.0 sec)
Now organizing SCF variables                       ... done
--------------
SCF ITERATIONS
--------------
ITER       Energy         Delta-E        Max-DP      RMS-DP      [F,P]     Damp
               ***  Starting incremental Fock matrix formation  ***
  0   -325.8621659027   0.000000000000 0.03603163  0.00090435  0.1592234 0.7000
  1   -325.9280632747  -0.065897372037 0.04250397  0.00075970  0.0863230 0.7000
                               ***Turning on DIIS***
  2   -325.9580707244  -0.030007449678 0.08940895  0.00150086  0.0356649 0.0000
  3   -326.0027650620  -0.044694337658 0.02684208  0.00050238  0.0460381 0.0000
  4   -326.0126575156  -0.009892453542 0.01104349  0.00016627  0.0066340 0.0000
  5   -326.0129527747  -0.000295259104 0.00431199  0.00007000  0.0038089 0.0000
                      *** Initiating the SOSCF procedure ***
                           *** Shutting down DIIS ***
                      *** Re-Reading the Fockian *** 
                      *** Removing any level shift *** 
ITER      Energy       Delta-E        Grad      Rot      Max-DP    RMS-DP
  6   -326.01298842  -0.0000356501  0.000298  0.000298  0.001064  0.000025
               *** Restarting incremental Fock matrix formation ***
  7   -326.01299215  -0.0000037231  0.000118  0.000505  0.001057  0.000018
  8   -326.01299234  -0.0000001916  0.000177  0.000394  0.000188  0.000005
  9   -326.01299275  -0.0000004058  0.000050  0.000133  0.000144  0.000003
 10   -326.01299276  -0.0000000101  0.000026  0.000019  0.000034  0.000001
 11   -326.01299278  -0.0000000235  0.000005  0.000024  0.000044  0.000001
 12   -326.01299278   0.0000000001  0.000003  0.000005  0.000016  0.000000
                  ***Gradient check signals convergence***
              ***Rediagonalizing the Fockian in SOSCF/NRSCF***

               *****************************************************
               *                     SUCCESS                       *
               *           SCF CONVERGED AFTER  13 CYCLES          *
               *****************************************************

Setting up the final grid:

General Integration Accuracy     IntAcc      ...  5.010
Radial Grid Type                 RadialGrid  ... Gauss-Chebyshev
Angular Grid (max. acc.)         AngularGrid ... Lebedev-434
Angular grid pruning method      GridPruning ... 3 (G Style)
Weight generation scheme         WeightScheme... Becke
Basis function cutoff            BFCut       ...    1.0000e-11
Integration weight cutoff        WCut        ...    1.0000e-14
Grids for H and He will be reduced by one unit

# of grid points (after initial pruning)     ... 141842 (   0.0 sec)
# of grid points (after weights+screening)   ... 128899 (   0.1 sec)
nearest neighbour list constructed           ...    0.0 sec
Grid point re-assignment to atoms done       ...    0.0 sec
Grid point division into batches done        ...    0.8 sec
Reduced shell lists constructed in    1.0 sec

Total number of grid points                  ...   128899
Total number of batches                      ...     2022
Average number of points per batch           ...       63
Average number of grid points per atom       ...     7582
Average number of shells per batch           ...    90.93 (77.72%)
Average number of basis functions per batch  ...   225.78 (81.51%)
Average number of large shells per batch     ...    74.95 (82.43%)
Average number of large basis fcns per batch ...   185.96 (82.36%)
Maximum spatial batch extension              ...   2.49,  3.86,  3.00 au
Average spatial batch extension              ...   0.12,  0.12,  0.11 au

Final grid set up in    1.1 sec
Final integration                            ... done (   0.6 sec)
Change in XC energy                          ...     0.000337199
Integrated number of electrons               ...    54.000007682
Previous integrated no of electrons          ...    53.999501926
Total Energy       :         -326.01265558 Eh           -8871.25536 eV
  Last Energy change         ...   -1.1062e-09  Tolerance :   1.0000e-08
  Last MAX-Density change    ...    5.0838e-06  Tolerance :   1.0000e-07
             **** THE GBW FILE WAS UPDATED (4652_+.gbw) ****
             **** DENSITY FILE WAS UPDATED (4652_+.scfp.tmp) ****
             **** ENERGY FILE WAS UPDATED (4652_+.en.tmp) ****
Total SCF time: 0 days 0 hours 1 min 6 sec 
           ************************************************************
           *              Shut down parallel processing               *
           ************************************************************

-------------------------   --------------------
FINAL SINGLE POINT ENERGY      -326.012655580804
-------------------------   --------------------



           ************************************************************
           *        Program running with 8 parallel MPI-processes     *
           *              working on a common directory               *
           ************************************************************
------------------------------------------------------------------------------
                         ORCA SCF GRADIENT CALCULATION
------------------------------------------------------------------------------

Gradient of the Kohn-Sham DFT energy:
Kohn-Sham wavefunction type      ... RKS
Hartree-Fock exchange scaling    ...    0.250
Number of operators              ...    1
Number of atoms                  ...   17
Basis set dimensions             ...  277
Integral neglect threshold       ... 2.5e-11
Integral primitive cutoff        ... 2.5e-12

Nuclear repulsion gradient       ... done
One Electron Gradient            ... done
Pre-screening matrix             ... done
Starting the two electron gradient:
Two electron gradient done
Exchange-correlation gradient    ... done

------------------
CARTESIAN GRADIENT
------------------

   1   C   :    0.000004124   -0.000001231   -0.000280129
   2   C   :    0.000084057   -0.000009663    0.000077428
   3   C   :    0.000026284    0.000051173    0.000119862
   4   C   :   -0.000057425    0.000033703    0.000006281
   5   N   :    0.000032611   -0.000126771    0.000005884
   6   C   :    0.000237892    0.000150320    0.000111807
   7   O   :   -0.000180592   -0.000140933   -0.000123268
   8   H   :    0.000045945   -0.000041583    0.000107717
   9   H   :    0.000037714    0.000072986    0.000073336
  10   H   :   -0.000081430    0.000026238    0.000061914
  11   H   :   -0.000018461   -0.000009591   -0.000008817
  12   H   :   -0.000008926   -0.000000993   -0.000031343
  13   H   :    0.000041123    0.000042636   -0.000029922
  14   H   :   -0.000023457    0.000025852    0.000020817
  15   H   :   -0.000021708   -0.000010974   -0.000031847
  16   H   :   -0.000112885    0.000025254   -0.000035151
  17   H   :   -0.000004867   -0.000086422   -0.000044569

Norm of the cartesian gradient     ...    0.000601978
RMS gradient                       ...    0.000084294
MAX gradient                       ...    0.000280129

-------
TIMINGS
-------

Total SCF gradient time            ...       27.388 sec

One electron gradient       ....       0.120 sec  (  0.4%)
Prescreening matrices       ....       0.405 sec  (  1.5%)
Two electron gradient       ....      23.261 sec  ( 84.9%)
XC gradient                 ....       2.629 sec  (  9.6%)
           ************************************************************
           *              Shut down parallel processing               *
           ************************************************************
------------------------------------------------------------------------------
                         ORCA GEOMETRY RELAXATION STEP
------------------------------------------------------------------------------

Reading the OPT-File                    .... done
Getting information on internals        .... done
Copying old internal coords+grads       .... done
Making the new internal coordinates     .... (new redundants).... done
Validating the new internal coordinates .... (new redundants).... done
Calculating the B-matrix                .... done
Calculating the G,G- and P matrices     .... done
Transforming gradient to internals      .... done
Projecting the internal gradient        .... done
Number of atoms                         ....  17
Number of internal coordinates          ....  87
Current Energy                          ....  -326.012655581 Eh
Current gradient norm                   ....     0.000601978 Eh/bohr
Maximum allowed component of the step   ....  0.300
Current trust radius                    ....  0.300
Evaluating the initial hessian          ....  (Almloef) done
Projecting the Hessian                  .... done
Forming the augmented Hessian           .... done
Diagonalizing the augmented Hessian     .... done
Last element of RFO vector              ....  0.999994041
Lowest eigenvalues of augmented Hessian:
 -0.000000580  0.008769725  0.015015066  0.015650488  0.022551104
Length of the computed step             ....  0.003452246
The final length of the internal step   ....  0.003452246
Converting the step to cartesian space:
 Initial RMS(Int)=    0.0003701196
Transforming coordinates:
 Iter   0:  RMS(Cart)=    0.0005954109 RMS(Int)=    0.0003701156
 Iter   1:  RMS(Cart)=    0.0000002315 RMS(Int)=    0.0000001641
 Iter   2:  RMS(Cart)=    0.0000000002 RMS(Int)=    0.0000000001
done
Storing new coordinates                 .... done

                                .--------------------.
          ----------------------|Geometry convergence|---------------------
          Item                value                 Tolerance   Converged
          -----------------------------------------------------------------
          RMS gradient        0.00004266            0.00003000      NO
          MAX gradient        0.00015269            0.00010000      NO
          RMS step            0.00037012            0.00060000      YES
          MAX step            0.00117630            0.00100000      NO
          ....................................................
          Max(Bonds)      0.0002      Max(Angles)    0.02
          Max(Dihed)        0.07      Max(Improp)    0.00
          -----------------------------------------------------------------

The optimization has not yet converged - more geometry cycles are needed


    ---------------------------------------------------------------------------
                         Redundant Internal Coordinates
                            (Angstroem and degrees)

        Definition                    Value    dE/dq     Step     New-Value
    ----------------------------------------------------------------------------
     1. B(C   1,C   0)                1.4729 -0.000051  0.0001    1.4730   
     2. B(C   2,C   1)                1.3460 -0.000082  0.0001    1.3460   
     3. B(C   3,C   2)                1.4784 -0.000041  0.0000    1.4784   
     4. B(N   4,C   3)                1.5550  0.000070 -0.0001    1.5549   
     5. B(C   5,C   3)                1.5234  0.000039 -0.0001    1.5233   
     6. B(O   6,C   5)                1.4244  0.000124 -0.0001    1.4243   
     7. B(O   6,C   1)                1.3509 -0.000153  0.0001    1.3511   
     8. B(H   7,C   0)                1.0929  0.000103 -0.0002    1.0928   
     9. B(H   8,C   0)                1.0878 -0.000100  0.0001    1.0880   
    10. B(H   9,C   0)                1.0930  0.000099 -0.0001    1.0928   
    11. B(H  10,C   2)                1.0790  0.000019 -0.0000    1.0789   
    12. B(H  11,C   3)                1.0904  0.000016 -0.0000    1.0904   
    13. B(H  12,N   4)                1.0220 -0.000048  0.0001    1.0221   
    14. B(H  13,N   4)                1.0227 -0.000007  0.0000    1.0227   
    15. B(H  14,N   4)                1.0216  0.000037 -0.0000    1.0215   
    16. B(H  15,C   5)                1.0920 -0.000120  0.0002    1.0921   
    17. B(H  16,C   5)                1.0926 -0.000088  0.0001    1.0928   
    18. A(C   1,C   0,H   8)          111.06 -0.000011    0.00    111.06   
    19. A(H   7,C   0,H   9)          107.10 -0.000034    0.01    107.11   
    20. A(C   1,C   0,H   7)          110.02 -0.000005   -0.00    110.02   
    21. A(H   8,C   0,H   9)          109.33 -0.000032    0.01    109.34   
    22. A(H   7,C   0,H   8)          109.46  0.000046   -0.02    109.44   
    23. A(C   1,C   0,H   9)          109.79  0.000036   -0.00    109.79   
    24. A(C   2,C   1,O   6)          113.55  0.000005    0.00    113.55   
    25. A(C   0,C   1,O   6)          115.65  0.000040   -0.01    115.64   
    26. A(C   0,C   1,C   2)          130.80 -0.000046    0.01    130.81   
    27. A(C   3,C   2,H  10)          125.78 -0.000016    0.00    125.78   
    28. A(C   1,C   2,H  10)          126.13 -0.000041    0.01    126.13   
    29. A(C   1,C   2,C   3)          108.09  0.000056   -0.01    108.08   
    30. A(C   2,C   3,N   4)          109.60  0.000010   -0.00    109.60   
    31. A(C   5,C   3,H  11)          113.61  0.000016   -0.01    113.60   
    32. A(N   4,C   3,C   5)          110.80  0.000025   -0.01    110.79   
    33. A(N   4,C   3,H  11)          103.99 -0.000019    0.00    103.99   
    34. A(C   2,C   3,H  11)          117.24 -0.000004    0.01    117.25   
    35. A(C   2,C   3,C   5)          101.72 -0.000024    0.00    101.72   
    36. A(H  13,N   4,H  14)          108.28  0.000031   -0.00    108.27   
    37. A(H  12,N   4,H  14)          107.30 -0.000010   -0.00    107.30   
    38. A(C   3,N   4,H  14)          109.99 -0.000010    0.00    109.99   
    39. A(H  12,N   4,H  13)          108.88 -0.000008    0.00    108.88   
    40. A(C   3,N   4,H  13)          112.79 -0.000067    0.01    112.80   
    41. A(C   3,N   4,H  12)          109.44  0.000066   -0.01    109.43   
    42. A(O   6,C   5,H  16)          108.58  0.000005    0.01    108.58   
    43. A(C   3,C   5,H  16)          109.26 -0.000010    0.01    109.27   
    44. A(O   6,C   5,H  15)          108.91  0.000043   -0.01    108.90   
    45. A(C   3,C   5,H  15)          115.42  0.000025   -0.01    115.41   
    46. A(C   3,C   5,O   6)          105.77 -0.000070    0.01    105.78   
    47. A(H  15,C   5,H  16)          108.70  0.000005   -0.01    108.70   
    48. A(C   1,O   6,C   5)          107.39  0.000032   -0.00    107.38   
    49. D(C   2,C   1,C   0,H   8)      3.09 -0.000005   -0.05      3.04   
    50. D(O   6,C   1,C   0,H   9)     61.74  0.000007   -0.04     61.70   
    51. D(O   6,C   1,C   0,H   8)   -177.23 -0.000017   -0.03   -177.25   
    52. D(C   2,C   1,C   0,H   7)    124.43  0.000042   -0.07    124.36   
    53. D(O   6,C   1,C   0,H   7)    -55.88  0.000030   -0.05    -55.93   
    54. D(C   2,C   1,C   0,H   9)   -117.95  0.000019   -0.06   -118.00   
    55. D(C   3,C   2,C   1,C   0)   -177.72 -0.000007    0.02   -177.70   
    56. D(H  10,C   2,C   1,O   6)   -177.37  0.000002   -0.01   -177.37   
    57. D(H  10,C   2,C   1,C   0)      2.33 -0.000009    0.02      2.34   
    58. D(C   3,C   2,C   1,O   6)      2.58  0.000004    0.00      2.59   
    59. D(C   5,C   3,C   2,H  10)    167.21 -0.000009    0.01    167.22   
    60. D(C   5,C   3,C   2,C   1)    -12.74 -0.000011    0.01    -12.73   
    61. D(H  11,C   3,C   2,C   1)   -137.26 -0.000011    0.01   -137.26   
    62. D(N   4,C   3,C   2,H  10)    -75.47  0.000011    0.00    -75.47   
    63. D(N   4,C   3,C   2,C   1)    104.57  0.000009   -0.00    104.57   
    64. D(H  11,C   3,C   2,H  10)     42.69 -0.000009    0.01     42.70   
    65. D(H  14,N   4,C   3,H  11)    -64.41  0.000016    0.03    -64.38   
    66. D(H  14,N   4,C   3,C   5)    173.18 -0.000005    0.04    173.21   
    67. D(H  13,N   4,C   3,H  11)     56.58  0.000003    0.04     56.61   
    68. D(H  13,N   4,C   3,C   5)    -65.84 -0.000019    0.05    -65.80   
    69. D(H  13,N   4,C   3,C   2)   -177.30 -0.000009    0.05   -177.26   
    70. D(H  14,N   4,C   3,C   2)     61.71  0.000005    0.04     61.75   
    71. D(H  12,N   4,C   3,H  11)    177.95 -0.000005    0.04    177.99   
    72. D(H  12,N   4,C   3,C   5)     55.53 -0.000027    0.05     55.58   
    73. D(H  12,N   4,C   3,C   2)    -55.93 -0.000017    0.05    -55.88   
    74. D(H  15,C   5,C   3,N   4)     22.11 -0.000004   -0.01     22.10   
    75. D(H  15,C   5,C   3,C   2)    138.55  0.000005   -0.02    138.54   
    76. D(O   6,C   5,C   3,H  11)    145.01 -0.000027    0.00    145.02   
    77. D(O   6,C   5,C   3,N   4)    -98.36 -0.000023   -0.00    -98.36   
    78. D(H  15,C   5,C   3,H  11)    -94.52 -0.000008   -0.01    -94.52   
    79. D(O   6,C   5,C   3,C   2)     18.09 -0.000014   -0.01     18.08   
    80. D(H  16,C   5,C   3,H  11)     28.31  0.000009   -0.01     28.30   
    81. D(H  16,C   5,C   3,N   4)    144.94  0.000013   -0.02    144.92   
    82. D(H  16,C   5,C   3,C   2)    -98.62  0.000022   -0.02    -98.64   
    83. D(C   1,O   6,C   5,H  16)     99.70 -0.000044    0.03     99.73   
    84. D(C   1,O   6,C   5,H  15)   -142.09 -0.000011    0.02   -142.07   
    85. D(C   1,O   6,C   5,C   3)    -17.46  0.000001    0.01    -17.45   
    86. D(C   5,O   6,C   1,C   2)      9.81  0.000003   -0.01      9.80   
    87. D(C   5,O   6,C   1,C   0)   -169.93  0.000013   -0.03   -169.96   
    ----------------------------------------------------------------------------

         *************************************************************
         *                GEOMETRY OPTIMIZATION CYCLE   2            *
         *************************************************************
---------------------------------
CARTESIAN COORDINATES (ANGSTROEM)
---------------------------------
  C     -1.956429   -1.317129    0.896671
  C     -0.892589   -0.441246    0.376368
  C     -0.653577    0.007304   -0.870002
  C      0.584764    0.814285   -0.837688
  N      1.754316   -0.000016   -1.459620
  C      0.792760    1.002055    0.659663
  O     -0.000129    0.000467    1.289502
  H     -1.516442   -2.175793    1.409776
  H     -2.602371   -1.666869    0.094102
  H     -2.555065   -0.774851    1.632766
  H     -1.258237   -0.185680   -1.742480
  H      0.586399    1.748949   -1.399223
  H      1.849371   -0.889806   -0.965822
  H      2.647433    0.496748   -1.421522
  H      1.548964   -0.215317   -2.436875
  H      1.824301    0.905811    1.005250
  H      0.414127    1.983331    0.956086

----------------------------
CARTESIAN COORDINATES (A.U.)
----------------------------
  NO LB      ZA    FRAG    MASS        X           Y           Z
   0 C     6.0000    0    12.011         -3.697115336907701         -2.489013425164814          1.694462719726810
   1 C     6.0000    0    12.011         -1.686747979203226         -0.833834702572344          0.711232604206865
   2 C     6.0000    0    12.011         -1.235081773588108          0.013801995407742         -1.644065135433790
   3 C     6.0000    0    12.011          1.105043541386815          1.538775730002904         -1.583001516863185
   4 N     7.0000    0    14.007          3.315176924777767         -0.000029392030063         -2.758281969331015
   5 C     6.0000    0    12.011          1.498099102555474          1.893608919889251          1.246583264902362
   6 O     8.0000    0    15.999         -0.000243166816281          0.000882002214636          2.436805620313837
   7 H     1.0000    0     1.008         -2.865660629116688         -4.111653412103108          2.664089793986372
   8 H     1.0000    0     1.008         -4.917768965281981         -3.149925486331329          0.177826941560006
   9 H     1.0000    0     1.008         -4.828373508750058         -1.464256729064893          3.085480857187803
  10 H     1.0000    0     1.008         -2.377722694034195         -0.350885014317138         -3.292810461289256
  11 H     1.0000    0     1.008          1.108133634045016          3.305034317418750         -2.644147580442327
  12 H     1.0000    0     1.008          3.494804232984309         -1.681490002312366         -1.825138601860813
  13 H     1.0000    0     1.008          5.002922908724580          0.938718039857279         -2.686287685560471
  14 H     1.0000    0     1.008          2.927116996599578         -0.406890599859958         -4.605026740255419
  15 H     1.0000    0     1.008          3.447429790161510          1.711735366921308          1.899646614594430
  16 H     1.0000    0     1.008          0.782587454802927          3.747953310497572          1.806740881547471

--------------------------------
INTERNAL COORDINATES (ANGSTROEM)
--------------------------------
 C      0   0   0   0.000000     0.000     0.000
 C      1   0   0   1.472971     0.000     0.000
 C      2   1   0   1.346017   130.805     0.000
 C      3   2   1   1.478429   108.083   182.297
 N      4   3   2   1.554907   109.598   104.571
 C      4   3   2   1.523346   101.720   347.266
 O      2   1   3   1.351077   115.642   179.707
 H      1   2   3   1.092780   110.017   124.364
 H      1   2   3   1.087969   111.062     3.040
 H      1   2   3   1.092825   109.785   241.997
 H      3   2   1   1.078923   126.134     2.340
 H      4   3   2   1.090376   117.251   222.742
 H      5   4   3   1.022056   109.429   304.118
 H      5   4   3   1.022684   112.805   182.744
 H      5   4   3   1.021544   109.987    61.755
 H      6   4   3   1.092140   115.412   138.538
 H      6   4   3   1.092764   109.269   261.362

---------------------------
INTERNAL COORDINATES (A.U.)
---------------------------
 C      0   0   0   0.000000     0.000     0.000
 C      1   0   0   2.783511     0.000     0.000
 C      2   1   0   2.543603   130.805     0.000
 C      3   2   1   2.793825   108.083   182.297
 N      4   3   2   2.938349   109.598   104.571
 C      4   3   2   2.878706   101.720   347.266
 O      2   1   3   2.553165   115.642   179.707
 H      1   2   3   2.065055   110.017   124.364
 H      1   2   3   2.055963   111.062     3.040
 H      1   2   3   2.065140   109.785   241.997
 H      3   2   1   2.038869   126.134     2.340
 H      4   3   2   2.060512   117.251   222.742
 H      5   4   3   1.931407   109.429   304.118
 H      5   4   3   1.932593   112.805   182.744
 H      5   4   3   1.930438   109.987    61.755
 H      6   4   3   2.063846   115.412   138.538
 H      6   4   3   2.065025   109.269   261.362



           ************************************************************
           *        Program running with 8 parallel MPI-processes     *
           *              working on a common directory               *
           ************************************************************
           ************************************************************
           *              Shut down parallel processing               *
           ************************************************************


           ************************************************************
           *        Program running with 8 parallel MPI-processes     *
           *              working on a common directory               *
           ************************************************************

Diagonalization of the overlap matrix:
Smallest eigenvalue                        ... 7.107e-05
Time for diagonalization                   ...    0.018 sec
Threshold for overlap eigenvalues          ... 1.000e-08
Number of eigenvalues below threshold      ... 0
Time for construction of square roots      ...    0.008 sec
Total time needed                          ...    0.026 sec

-------------------
DFT GRID GENERATION
-------------------

General Integration Accuracy     IntAcc      ...  4.340
Radial Grid Type                 RadialGrid  ... Gauss-Chebyshev
Angular Grid (max. acc.)         AngularGrid ... Lebedev-194
Angular grid pruning method      GridPruning ... 3 (G Style)
Weight generation scheme         WeightScheme... Becke
Basis function cutoff            BFCut       ...    1.0000e-11
Integration weight cutoff        WCut        ...    1.0000e-14
Grids for H and He will be reduced by one unit

# of grid points (after initial pruning)     ...  38362 (   0.0 sec)
# of grid points (after weights+screening)   ...  35234 (   0.0 sec)
nearest neighbour list constructed           ...    0.0 sec
Grid point re-assignment to atoms done       ...    0.0 sec
Grid point division into batches done        ...    0.1 sec
Reduced shell lists constructed in    0.1 sec

Total number of grid points                  ...    35234
Total number of batches                      ...      559
Average number of points per batch           ...       63
Average number of grid points per atom       ...     2073
Average number of shells per batch           ...    91.99 (78.62%)
Average number of basis functions per batch  ...   227.82 (82.24%)
Average number of large shells per batch     ...    76.37 (83.02%)
Average number of large basis fcns per batch ...   189.49 (83.18%)
Maximum spatial batch extension              ...   4.86,  4.35,  3.00 au
Average spatial batch extension              ...   0.18,  0.18,  0.17 au

Time for grid setup =    0.172 sec

--------------
SCF ITERATIONS
--------------
ITER       Energy         Delta-E        Max-DP      RMS-DP      [F,P]     Damp
               ***  Starting incremental Fock matrix formation  ***
                      *** Initiating the SOSCF procedure ***
                      *** Re-Reading the Fockian *** 
                      *** Removing any level shift *** 
ITER      Energy       Delta-E        Grad      Rot      Max-DP    RMS-DP
  0   -326.01299241 -326.0129924059  0.000070  0.000070  0.000254  0.000004
               *** Restarting incremental Fock matrix formation ***
  1   -326.01299277  -0.0000003634  0.000017  0.000029  0.000074  0.000001
  2   -326.01299280  -0.0000000330  0.000005  0.000013  0.000017  0.000001
  3   -326.01299280   0.0000000008  0.000006  0.000008  0.000009  0.000000
                 **** Energy Check signals convergence ****
              ***Rediagonalizing the Fockian in SOSCF/NRSCF***

               *****************************************************
               *                     SUCCESS                       *
               *           SCF CONVERGED AFTER   4 CYCLES          *
               *****************************************************

Setting up the final grid:

General Integration Accuracy     IntAcc      ...  5.010
Radial Grid Type                 RadialGrid  ... Gauss-Chebyshev
Angular Grid (max. acc.)         AngularGrid ... Lebedev-434
Angular grid pruning method      GridPruning ... 3 (G Style)
Weight generation scheme         WeightScheme... Becke
Basis function cutoff            BFCut       ...    1.0000e-11
Integration weight cutoff        WCut        ...    1.0000e-14
Grids for H and He will be reduced by one unit

# of grid points (after initial pruning)     ... 141842 (   0.0 sec)
# of grid points (after weights+screening)   ... 128904 (   0.1 sec)
nearest neighbour list constructed           ...    0.0 sec
Grid point re-assignment to atoms done       ...    0.0 sec
Grid point division into batches done        ...    0.8 sec
Reduced shell lists constructed in    1.0 sec

Total number of grid points                  ...   128904
Total number of batches                      ...     2021
Average number of points per batch           ...       63
Average number of grid points per atom       ...     7583
Average number of shells per batch           ...    90.92 (77.71%)
Average number of basis functions per batch  ...   225.74 (81.50%)
Average number of large shells per batch     ...    74.91 (82.39%)
Average number of large basis fcns per batch ...   185.74 (82.28%)
Maximum spatial batch extension              ...   2.49,  3.86,  3.00 au
Average spatial batch extension              ...   0.12,  0.12,  0.11 au

Final grid set up in    1.2 sec
Final integration                            ... done (   0.7 sec)
Change in XC energy                          ...     0.000336840
Integrated number of electrons               ...    54.000007686
Previous integrated no of electrons          ...    53.999498021
Total Energy       :         -326.01265596 Eh           -8871.25537 eV
  Last Energy change         ...   -3.2972e-09  Tolerance :   1.0000e-08
  Last MAX-Density change    ...    4.2457e-06  Tolerance :   1.0000e-07
             **** THE GBW FILE WAS UPDATED (4652_+.gbw) ****
             **** DENSITY FILE WAS UPDATED (4652_+.scfp.tmp) ****
             **** ENERGY FILE WAS UPDATED (4652_+.en.tmp) ****
Total SCF time: 0 days 0 hours 0 min 26 sec 
           ************************************************************
           *              Shut down parallel processing               *
           ************************************************************

-------------------------   --------------------
FINAL SINGLE POINT ENERGY      -326.012655964488
-------------------------   --------------------



           ************************************************************
           *        Program running with 8 parallel MPI-processes     *
           *              working on a common directory               *
           ************************************************************
------------------------------------------------------------------------------
                         ORCA SCF GRADIENT CALCULATION
------------------------------------------------------------------------------

Gradient of the Kohn-Sham DFT energy:
Kohn-Sham wavefunction type      ... RKS
Hartree-Fock exchange scaling    ...    0.250
Number of operators              ...    1
Number of atoms                  ...   17
Basis set dimensions             ...  277
Integral neglect threshold       ... 2.5e-11
Integral primitive cutoff        ... 2.5e-12

Nuclear repulsion gradient       ... done
One Electron Gradient            ... done
Pre-screening matrix             ... done
Starting the two electron gradient:
Two electron gradient done
Exchange-correlation gradient    ... done

------------------
CARTESIAN GRADIENT
------------------

   1   C   :    0.000026029   -0.000021965   -0.000081942
   2   C   :    0.000047662    0.000006868    0.000072956
   3   C   :    0.000002699    0.000047179    0.000007699
   4   C   :   -0.000051516    0.000027563    0.000008843
   5   N   :    0.000014049   -0.000055778   -0.000023739
   6   C   :    0.000102555    0.000031856    0.000015638
   7   O   :   -0.000065592   -0.000069882   -0.000041409
   8   H   :   -0.000000517    0.000025566    0.000045940
   9   H   :   -0.000010647    0.000022194    0.000005444
  10   H   :   -0.000021879   -0.000006011    0.000003731
  11   H   :   -0.000003335   -0.000005486    0.000001039
  12   H   :    0.000002946   -0.000009678   -0.000015755
  13   H   :    0.000028715    0.000002394   -0.000004068
  14   H   :   -0.000012865    0.000017867    0.000010215
  15   H   :   -0.000013660    0.000000221    0.000009331
  16   H   :   -0.000014997   -0.000000055    0.000003321
  17   H   :   -0.000029648   -0.000012852   -0.000017243

Norm of the cartesian gradient     ...    0.000235496
RMS gradient                       ...    0.000032976
MAX gradient                       ...    0.000102555

-------
TIMINGS
-------

Total SCF gradient time            ...       27.283 sec

One electron gradient       ....       0.083 sec  (  0.3%)
Prescreening matrices       ....       0.215 sec  (  0.8%)
Two electron gradient       ....      24.097 sec  ( 88.3%)
XC gradient                 ....       2.707 sec  (  9.9%)
           ************************************************************
           *              Shut down parallel processing               *
           ************************************************************
------------------------------------------------------------------------------
                         ORCA GEOMETRY RELAXATION STEP
------------------------------------------------------------------------------

Reading the OPT-File                    .... done
Getting information on internals        .... done
Copying old internal coords+grads       .... done
Making the new internal coordinates     .... (new redundants).... done
Validating the new internal coordinates .... (new redundants).... done
Calculating the B-matrix                .... done
Calculating the G,G- and P matrices     .... done
Transforming gradient to internals      .... done
Projecting the internal gradient        .... done
Number of atoms                         ....  17
Number of internal coordinates          ....  87
Current Energy                          ....  -326.012655964 Eh
Current gradient norm                   ....     0.000235496 Eh/bohr
Maximum allowed component of the step   ....  0.300
Current trust radius                    ....  0.300
Updating the Hessian (BFGS)             .... done
Forming the augmented Hessian           .... done
Diagonalizing the augmented Hessian     .... done
Last element of RFO vector              ....  0.999980636
Lowest eigenvalues of augmented Hessian:
 -0.000000415  0.006871266  0.012664091  0.015090408  0.022663565
Length of the computed step             ....  0.006223207
The final length of the internal step   ....  0.006223207
Converting the step to cartesian space:
 Initial RMS(Int)=    0.0006671978
Transforming coordinates:
 Iter   0:  RMS(Cart)=    0.0010137100 RMS(Int)=    0.0006671871
 Iter   1:  RMS(Cart)=    0.0000006922 RMS(Int)=    0.0000005024
 Iter   2:  RMS(Cart)=    0.0000000010 RMS(Int)=    0.0000000007
done
Storing new coordinates                 .... done

                                .--------------------.
          ----------------------|Geometry convergence|---------------------
          Item                value                 Tolerance   Converged
          -----------------------------------------------------------------
          Energy change      -0.00000038            0.00000100      YES
          RMS gradient        0.00001689            0.00003000      YES
          MAX gradient        0.00006452            0.00010000      YES
          RMS step            0.00066720            0.00060000      NO
          MAX step            0.00212450            0.00100000      NO
          ....................................................
          Max(Bonds)      0.0002      Max(Angles)    0.02
          Max(Dihed)        0.12      Max(Improp)    0.00
          -----------------------------------------------------------------

       The energies and gradients are converged
       and the convergence on bond distances, angles, dihedrals and impropers
       is acceptable.
       Convergence will therefore be signaled now


                    ***********************HURRAY********************
                    ***        THE OPTIMIZATION HAS CONVERGED     ***
                    *************************************************


    ---------------------------------------------------------------------------
                         Redundant Internal Coordinates

                          --- Optimized Parameters ---  
                            (Angstroem and degrees)

        Definition                    OldVal   dE/dq     Step     FinalVal
    ----------------------------------------------------------------------------
     1. B(C   1,C   0)                1.4730 -0.000016  0.0001    1.4730   
     2. B(C   2,C   1)                1.3460 -0.000007  0.0000    1.3461   
     3. B(C   3,C   2)                1.4784 -0.000031  0.0001    1.4785   
     4. B(N   4,C   3)                1.5549  0.000032 -0.0001    1.5548   
     5. B(C   5,C   3)                1.5233  0.000016 -0.0001    1.5233   
     6. B(O   6,C   5)                1.4243  0.000053 -0.0002    1.4241   
     7. B(O   6,C   1)                1.3511 -0.000065  0.0001    1.3512   
     8. B(H   7,C   0)                1.0928  0.000002 -0.0001    1.0927   
     9. B(H   8,C   0)                1.0880 -0.000005  0.0001    1.0880   
    10. B(H   9,C   0)                1.0928  0.000011 -0.0001    1.0927   
    11. B(H  10,C   2)                1.0789  0.000002 -0.0000    1.0789   
    12. B(H  11,C   3)                1.0904  0.000000 -0.0000    1.0904   
    13. B(H  12,N   4)                1.0221 -0.000002  0.0000    1.0221   
    14. B(H  13,N   4)                1.0227 -0.000002  0.0000    1.0227   
    15. B(H  14,N   4)                1.0215 -0.000006 -0.0000    1.0215   
    16. B(H  15,C   5)                1.0921 -0.000014  0.0001    1.0922   
    17. B(H  16,C   5)                1.0928 -0.000006  0.0001    1.0928   
    18. A(C   1,C   0,H   8)          111.06 -0.000000   -0.00    111.06   
    19. A(H   7,C   0,H   9)          107.11 -0.000025    0.02    107.13   
    20. A(C   1,C   0,H   7)          110.02  0.000002   -0.00    110.01   
    21. A(H   8,C   0,H   9)          109.34 -0.000020    0.01    109.35   
    22. A(H   7,C   0,H   8)          109.44  0.000026   -0.02    109.42   
    23. A(C   1,C   0,H   9)          109.79  0.000016   -0.00    109.78   
    24. A(C   2,C   1,O   6)          113.55  0.000010    0.00    113.55   
    25. A(C   0,C   1,O   6)          115.64  0.000028   -0.01    115.63   
    26. A(C   0,C   1,C   2)          130.81 -0.000038    0.01    130.82   
    27. A(C   3,C   2,H  10)          125.78 -0.000002    0.00    125.78   
    28. A(C   1,C   2,H  10)          126.13 -0.000014    0.01    126.14   
    29. A(C   1,C   2,C   3)          108.08  0.000016   -0.01    108.08   
    30. A(C   2,C   3,N   4)          109.60  0.000010   -0.01    109.59   
    31. A(C   5,C   3,H  11)          113.60  0.000013   -0.01    113.59   
    32. A(N   4,C   3,C   5)          110.79  0.000003   -0.01    110.79   
    33. A(N   4,C   3,H  11)          103.99 -0.000011    0.01    104.00   
    34. A(C   2,C   3,H  11)          117.25 -0.000005    0.01    117.26   
    35. A(C   2,C   3,C   5)          101.72 -0.000008    0.00    101.72   
    36. A(H  13,N   4,H  14)          108.27  0.000022   -0.00    108.27   
    37. A(H  12,N   4,H  14)          107.30 -0.000003   -0.00    107.30   
    38. A(C   3,N   4,H  14)          109.99 -0.000015    0.01    109.99   
    39. A(H  12,N   4,H  13)          108.88 -0.000005    0.00    108.89   
    40. A(C   3,N   4,H  13)          112.80 -0.000040    0.02    112.82   
    41. A(C   3,N   4,H  12)          109.43  0.000042   -0.02    109.41   
    42. A(O   6,C   5,H  16)          108.58 -0.000005    0.01    108.59   
    43. A(C   3,C   5,H  16)          109.27 -0.000016    0.01    109.28   
    44. A(O   6,C   5,H  15)          108.90  0.000009   -0.01    108.89   
    45. A(C   3,C   5,H  15)          115.41  0.000016   -0.01    115.40   
    46. A(C   3,C   5,O   6)          105.78 -0.000017    0.01    105.79   
    47. A(H  15,C   5,H  16)          108.70  0.000011   -0.01    108.68   
    48. A(C   1,O   6,C   5)          107.38 -0.000000   -0.00    107.38   
    49. D(C   2,C   1,C   0,H   8)      3.04 -0.000002   -0.09      2.95   
    50. D(O   6,C   1,C   0,H   9)     61.70  0.000009   -0.09     61.62   
    51. D(O   6,C   1,C   0,H   8)   -177.25 -0.000006   -0.07   -177.33   
    52. D(C   2,C   1,C   0,H   7)    124.36  0.000032   -0.12    124.24   
    53. D(O   6,C   1,C   0,H   7)    -55.93  0.000028   -0.11    -56.03   
    54. D(C   2,C   1,C   0,H   9)   -118.00  0.000012   -0.10   -118.11   
    55. D(C   3,C   2,C   1,C   0)   -177.70 -0.000004    0.02   -177.68   
    56. D(H  10,C   2,C   1,O   6)   -177.37 -0.000002    0.00   -177.37   
    57. D(H  10,C   2,C   1,C   0)      2.34 -0.000005    0.02      2.36   
    58. D(C   3,C   2,C   1,O   6)      2.59 -0.000000    0.01      2.59   
    59. D(C   5,C   3,C   2,H  10)    167.22  0.000001    0.01    167.23   
    60. D(C   5,C   3,C   2,C   1)    -12.73 -0.000001    0.01    -12.73   
    61. D(H  11,C   3,C   2,C   1)   -137.26 -0.000008    0.01   -137.25   
    62. D(N   4,C   3,C   2,H  10)    -75.47  0.000004   -0.00    -75.47   
    63. D(N   4,C   3,C   2,C   1)    104.57  0.000003   -0.00    104.57   
    64. D(H  11,C   3,C   2,H  10)     42.70 -0.000007    0.01     42.71   
    65. D(H  14,N   4,C   3,H  11)    -64.38  0.000008    0.06    -64.32   
    66. D(H  14,N   4,C   3,C   5)    173.21 -0.000002    0.07    173.29   
    67. D(H  13,N   4,C   3,H  11)     56.61 -0.000002    0.07     56.69   
    68. D(H  13,N   4,C   3,C   5)    -65.80 -0.000012    0.08    -65.71   
    69. D(H  13,N   4,C   3,C   2)   -177.26 -0.000009    0.09   -177.17   
    70. D(H  14,N   4,C   3,C   2)     61.75  0.000000    0.08     61.83   
    71. D(H  12,N   4,C   3,H  11)    177.99 -0.000004    0.08    178.06   
    72. D(H  12,N   4,C   3,C   5)     55.58 -0.000014    0.09     55.66   
    73. D(H  12,N   4,C   3,C   2)    -55.88 -0.000012    0.09    -55.79   
    74. D(H  15,C   5,C   3,N   4)     22.10 -0.000007   -0.01     22.09   
    75. D(H  15,C   5,C   3,C   2)    138.54  0.000002   -0.02    138.52   
    76. D(O   6,C   5,C   3,H  11)    145.02 -0.000011   -0.00    145.01   
    77. D(O   6,C   5,C   3,N   4)    -98.36 -0.000015   -0.00    -98.36   
    78. D(H  15,C   5,C   3,H  11)    -94.52 -0.000002   -0.01    -94.54   
    79. D(O   6,C   5,C   3,C   2)     18.08 -0.000006   -0.01     18.07   
    80. D(H  16,C   5,C   3,H  11)     28.30  0.000011   -0.03     28.27   
    81. D(H  16,C   5,C   3,N   4)    144.92  0.000007   -0.03    144.90   
    82. D(H  16,C   5,C   3,C   2)    -98.64  0.000016   -0.04    -98.67   
    83. D(C   1,O   6,C   5,H  16)     99.73 -0.000026    0.04     99.77   
    84. D(C   1,O   6,C   5,H  15)   -142.07 -0.000011    0.03   -142.04   
    85. D(C   1,O   6,C   5,C   3)    -17.45  0.000003    0.02    -17.44   
    86. D(C   5,O   6,C   1,C   2)      9.80  0.000000   -0.02      9.79   
    87. D(C   5,O   6,C   1,C   0)   -169.96  0.000003   -0.03   -169.98   
    ----------------------------------------------------------------------------
                 *******************************************************
                 *** FINAL ENERGY EVALUATION AT THE STATIONARY POINT ***
                 ***               (AFTER    2 CYCLES)               ***
                 *******************************************************


           ************************************************************
           *        Program running with 8 parallel MPI-processes     *
           *              working on a common directory               *
           ************************************************************
           ************************************************************
           *              Shut down parallel processing               *
           ************************************************************


           ************************************************************
           *        Program running with 8 parallel MPI-processes     *
           *              working on a common directory               *
           ************************************************************
------------
SCF SETTINGS
------------
Hamiltonian:
 Density Functional     Method          .... DFT(GTOs)
 Exchange Functional    Exchange        .... PBE
   PBE kappa parameter  XKappa          ....  0.804000
 Correlation Functional Correlation     .... PBE
 LDA part of GGA corr.  LDAOpt          .... PW91-LDA
 Gradients option       PostSCFGGA      .... off
 Hybrid DFT is turned on
   Fraction HF Exchange ScalHFX         ....  0.250000
   Scaling of DF-GGA-X  ScalDFX         ....  0.750000
   Scaling of DF-GGA-C  ScalDFC         ....  1.000000
   Scaling of DF-LDA-C  ScalLDAC        ....  1.000000
   Perturbative correction              ....  0.000000
   NL short-range parameter             ....  6.900000


General Settings:
 Integral files         IntName         .... 4652_+
 Hartree-Fock type      HFTyp           .... RHF
 Total Charge           Charge          ....    1
 Multiplicity           Mult            ....    1
 Number of Electrons    NEL             ....   54
 Basis Dimension        Dim             ....  277
 Nuclear Repulsion      ENuc            ....    324.4122866951 Eh

Convergence Acceleration:
 DIIS                   CNVDIIS         .... on
   Start iteration      DIISMaxIt       ....    12
   Startup error        DIISStart       ....  0.200000
   # of expansion vecs  DIISMaxEq       ....     5
   Bias factor          DIISBfac        ....   1.050
   Max. coefficient     DIISMaxC        ....  10.000
 Newton-Raphson         CNVNR           .... off
 SOSCF                  CNVSOSCF        .... on
   Start iteration      SOSCFMaxIt      ....   150
   Startup grad/error   SOSCFStart      ....  0.003300
 Level Shifting         CNVShift        .... on
   Level shift para.    LevelShift      ....    0.2500
   Turn off err/grad.   ShiftErr        ....    0.0010
 Zerner damping         CNVZerner       .... off
 Static damping         CNVDamp         .... on
   Fraction old density DampFac         ....    0.7000
   Max. Damping (<1)    DampMax         ....    0.9800
   Min. Damping (>=0)   DampMin         ....    0.0000
   Turn off err/grad.   DampErr         ....    0.1000
 Fernandez-Rico         CNVRico         .... off

SCF Procedure:
 Maximum # iterations   MaxIter         ....   125
 SCF integral mode      SCFMode         .... Direct
   Integral package                     .... LIBINT
 Reset frequeny         DirectResetFreq ....    20
 Integral Threshold     Thresh          ....  2.500e-11 Eh
 Primitive CutOff       TCut            ....  2.500e-12 Eh

Convergence Tolerance:
 Convergence Check Mode ConvCheckMode   .... Total+1el-Energy
 Energy Change          TolE            ....  1.000e-08 Eh
 1-El. energy change                    ....  1.000e-05 Eh
 Orbital Gradient       TolG            ....  1.000e-05
 Orbital Rotation angle TolX            ....  1.000e-05
 DIIS Error             TolErr          ....  5.000e-07


Diagonalization of the overlap matrix:
Smallest eigenvalue                        ... 7.104e-05
Time for diagonalization                   ...    0.210 sec
Threshold for overlap eigenvalues          ... 1.000e-08
Number of eigenvalues below threshold      ... 0
Time for construction of square roots      ...    0.020 sec
Total time needed                          ...    0.230 sec

-------------------
DFT GRID GENERATION
-------------------

General Integration Accuracy     IntAcc      ...  4.340
Radial Grid Type                 RadialGrid  ... Gauss-Chebyshev
Angular Grid (max. acc.)         AngularGrid ... Lebedev-194
Angular grid pruning method      GridPruning ... 3 (G Style)
Weight generation scheme         WeightScheme... Becke
Basis function cutoff            BFCut       ...    1.0000e-11
Integration weight cutoff        WCut        ...    1.0000e-14
Grids for H and He will be reduced by one unit

# of grid points (after initial pruning)     ...  38362 (   0.0 sec)
# of grid points (after weights+screening)   ...  35234 (   0.0 sec)
nearest neighbour list constructed           ...    0.0 sec
Grid point re-assignment to atoms done       ...    0.0 sec
Grid point division into batches done        ...    0.1 sec
Reduced shell lists constructed in    0.1 sec

Total number of grid points                  ...    35234
Total number of batches                      ...      559
Average number of points per batch           ...       63
Average number of grid points per atom       ...     2073
Average number of shells per batch           ...    91.97 (78.61%)
Average number of basis functions per batch  ...   227.80 (82.24%)
Average number of large shells per batch     ...    76.38 (83.05%)
Average number of large basis fcns per batch ...   189.51 (83.19%)
Maximum spatial batch extension              ...   4.86,  4.40,  3.00 au
Average spatial batch extension              ...   0.18,  0.18,  0.17 au

Time for grid setup =    0.176 sec

--------------
SCF ITERATIONS
--------------
ITER       Energy         Delta-E        Max-DP      RMS-DP      [F,P]     Damp
               ***  Starting incremental Fock matrix formation  ***
                      *** Initiating the SOSCF procedure ***
                      *** Re-Reading the Fockian *** 
                      *** Removing any level shift *** 
ITER      Energy       Delta-E        Grad      Rot      Max-DP    RMS-DP
  0   -326.01299150 -326.0129915007  0.000118  0.000118  0.000445  0.000007
               *** Restarting incremental Fock matrix formation ***
  1   -326.01299249  -0.0000009912  0.000028  0.000056  0.000148  0.000002
  2   -326.01299259  -0.0000000960  0.000005  0.000012  0.000027  0.000001
  3   -326.01299259  -0.0000000002  0.000006  0.000011  0.000010  0.000000
                  ***Gradient check signals convergence***
              ***Rediagonalizing the Fockian in SOSCF/NRSCF***

               *****************************************************
               *                     SUCCESS                       *
               *           SCF CONVERGED AFTER   4 CYCLES          *
               *****************************************************

Setting up the final grid:

General Integration Accuracy     IntAcc      ...  5.010
Radial Grid Type                 RadialGrid  ... Gauss-Chebyshev
Angular Grid (max. acc.)         AngularGrid ... Lebedev-434
Angular grid pruning method      GridPruning ... 3 (G Style)
Weight generation scheme         WeightScheme... Becke
Basis function cutoff            BFCut       ...    1.0000e-11
Integration weight cutoff        WCut        ...    1.0000e-14
Grids for H and He will be reduced by one unit

# of grid points (after initial pruning)     ... 141842 (   0.0 sec)
# of grid points (after weights+screening)   ... 128900 (   0.1 sec)
nearest neighbour list constructed           ...    0.0 sec
Grid point re-assignment to atoms done       ...    0.0 sec
Grid point division into batches done        ...    0.8 sec
Reduced shell lists constructed in    1.0 sec

Total number of grid points                  ...   128900
Total number of batches                      ...     2023
Average number of points per batch           ...       63
Average number of grid points per atom       ...     7582
Average number of shells per batch           ...    90.93 (77.72%)
Average number of basis functions per batch  ...   225.61 (81.45%)
Average number of large shells per batch     ...    74.92 (82.39%)
Average number of large basis fcns per batch ...   185.88 (82.39%)
Maximum spatial batch extension              ...   3.13,  3.86,  3.00 au
Average spatial batch extension              ...   0.12,  0.12,  0.11 au

Final grid set up in    1.2 sec
Final integration                            ... done (   0.6 sec)
Change in XC energy                          ...     0.000336415
Integrated number of electrons               ...    54.000007743
Previous integrated no of electrons          ...    53.999492506
Total Energy       :         -326.01265618 Eh           -8871.25538 eV
  Last Energy change         ...   -2.8132e-09  Tolerance :   1.0000e-08
  Last MAX-Density change    ...    4.8337e-06  Tolerance :   1.0000e-07
             **** THE GBW FILE WAS UPDATED (4652_+.gbw) ****
             **** DENSITY FILE WAS UPDATED (4652_+.scfp.tmp) ****
             **** ENERGY FILE WAS UPDATED (4652_+.en.tmp) ****
Total SCF time: 0 days 0 hours 0 min 24 sec 
           ************************************************************
           *              Shut down parallel processing               *
           ************************************************************

-------------------------   --------------------
FINAL SINGLE POINT ENERGY      -326.012656175923
-------------------------   --------------------

                                *** OPTIMIZATION RUN DONE ***

                            ***************************************
                            *     ORCA property calculations      *
                            ***************************************

                                    ---------------------
                                    Active property flags
                                    ---------------------




           ************************************************************
           *        Program running with 8 parallel MPI-processes     *
           *              working on a common directory               *
           ************************************************************

-------------------------------------------------------------------------------
                               ORCA SCF HESSIAN
-------------------------------------------------------------------------------

Hessian of the Kohn-Sham DFT energy:
Kohn-Sham wavefunction type                      ... RKS
Hartree-Fock exchange scaling                    ...    0.250
Number of operators                              ...    1
Number of atoms                                  ...   17
Basis set dimensions                             ...  277
Integral neglect threshold                       ... 2.5e-11
Integral primitive cutoff                        ... 2.5e-12

Setting up DFT Hessian calculations              ... 
Electron density on the grid                     ... found on disk
Electron density on the final grid               ... found on disk
Building xc-kernel on the grid                   ... done   (      0.0 sec)
Building xc-kernel on the final grid             ... done   (      0.0 sec)
                                                     done   (      0.2 sec)

Nuclear repulsion Hessian                        ... done   (      0.0 sec)

----------------------------------------------
Forming right-hand sides of CP-SCF equations     ...
----------------------------------------------
One electron integral derivatives                ... done   (      0.2 sec)
Transforming the overlap derivative matrices     ... done   (      0.1 sec)
Making the Q(x) pseudodensities                  ... done   (      0.1 sec)
Adding the E*S(x)*S(y) terms to the Hessian      ... done   (      0.0 sec)
Calculating energy weighted overlap derivatives  ... done   (      0.0 sec)
Two electron integral derivatives                ... done   (     35.2 sec)
Exchange-correlation integral derivatives        ... done   (     46.3 sec)
tr(F(y)Q(x)) contribution to the Hessian         ... done   (      0.0 sec)
Response fock operator R(S(x))                   ... done   (    129.7 sec)
XC Response fock operator R(S(x))                ... done   (     16.7 sec)
tr(F(y)S(x)) contribution to the Hessian         ... done   (      0.0 sec)
Transforming and finalizing RHSs                 ... done   (      0.1 sec)

----------------------------------------------
Solving the CP-SCF equations                     ...
----------------------------------------------
     CP-SCF ITERATION   0: 
     CP-SCF ITERATION   1:      0.003018149
     CP-SCF ITERATION   2:      0.000431608
     CP-SCF ITERATION   3:      0.000035995
     CP-SCF ITERATION   4:      0.000007043
     CP-SCF ITERATION   5:      0.000000207
     CP-SCF ITERATION   6:      0.000000018
     CP-SCF ITERATION   7:      0.000000006

                                                 ... done   (   1125.3 sec)
Forming perturbed density Hessian contributions  ... done   (      0.0 sec)
Making the perturbed densities                   ... done   (      0.0 sec)
2nd integral derivative contribs                 ... done   (    193.7 sec)
Exchange-correlation Hessian                     ... done   (     21.5 sec)
Dipol derivatives                                ... done   (      2.8 sec)

Total SCF Hessian time: 0 days 0 hours 26 min 12 sec 

Writing the Hessian file to the disk             ... done

           ************************************************************
           *              Shut down parallel processing               *
           ************************************************************

-----------------------
VIBRATIONAL FREQUENCIES
-----------------------

   0:         0.00 cm**-1
   1:         0.00 cm**-1
   2:         0.00 cm**-1
   3:         0.00 cm**-1
   4:         0.00 cm**-1
   5:         0.00 cm**-1
   6:       117.77 cm**-1
   7:       156.47 cm**-1
   8:       187.98 cm**-1
   9:       211.09 cm**-1
  10:       314.80 cm**-1
  11:       375.28 cm**-1
  12:       415.89 cm**-1
  13:       597.53 cm**-1
  14:       645.14 cm**-1
  15:       704.96 cm**-1
  16:       746.63 cm**-1
  17:       763.79 cm**-1
  18:       913.04 cm**-1
  19:       940.28 cm**-1
  20:       971.77 cm**-1
  21:       984.36 cm**-1
  22:      1006.17 cm**-1
  23:      1054.65 cm**-1
  24:      1059.60 cm**-1
  25:      1086.13 cm**-1
  26:      1135.55 cm**-1
  27:      1230.84 cm**-1
  28:      1257.72 cm**-1
  29:      1280.58 cm**-1
  30:      1333.19 cm**-1
  31:      1384.66 cm**-1
  32:      1404.34 cm**-1
  33:      1432.53 cm**-1
  34:      1458.24 cm**-1
  35:      1462.29 cm**-1
  36:      1471.83 cm**-1
  37:      1491.43 cm**-1
  38:      1641.99 cm**-1
  39:      1653.92 cm**-1
  40:      1690.90 cm**-1
  41:      3066.91 cm**-1
  42:      3079.89 cm**-1
  43:      3125.06 cm**-1
  44:      3131.84 cm**-1
  45:      3132.96 cm**-1
  46:      3179.21 cm**-1
  47:      3267.74 cm**-1
  48:      3409.34 cm**-1
  49:      3509.00 cm**-1
  50:      3515.58 cm**-1


------------
NORMAL MODES
------------

These modes are the cartesian displacements weighted by the diagonal matrix
M(i,i)=1/sqrt(m[i]) where m[i] is the mass of the displaced atom
Thus, these vectors are normalized but *not* orthogonal

                  0          1          2          3          4          5    
      0       0.000000   0.000000   0.000000   0.000000   0.000000   0.000000
      1       0.000000   0.000000   0.000000   0.000000   0.000000   0.000000
      2       0.000000   0.000000   0.000000   0.000000   0.000000   0.000000
      3       0.000000   0.000000   0.000000   0.000000   0.000000   0.000000
      4       0.000000   0.000000   0.000000   0.000000   0.000000   0.000000
      5       0.000000   0.000000   0.000000   0.000000   0.000000   0.000000
      6       0.000000   0.000000   0.000000   0.000000   0.000000   0.000000
      7       0.000000   0.000000   0.000000   0.000000   0.000000   0.000000
      8       0.000000   0.000000   0.000000   0.000000   0.000000   0.000000
      9       0.000000   0.000000   0.000000   0.000000   0.000000   0.000000
     10       0.000000   0.000000   0.000000   0.000000   0.000000   0.000000
     11       0.000000   0.000000   0.000000   0.000000   0.000000   0.000000
     12       0.000000   0.000000   0.000000   0.000000   0.000000   0.000000
     13       0.000000   0.000000   0.000000   0.000000   0.000000   0.000000
     14       0.000000   0.000000   0.000000   0.000000   0.000000   0.000000
     15       0.000000   0.000000   0.000000   0.000000   0.000000   0.000000
     16       0.000000   0.000000   0.000000   0.000000   0.000000   0.000000
[...]
     49      -0.252718   0.030732  -0.152631   0.142796   0.005378   0.011920
     50       0.437224  -0.180783   0.285156  -0.383206  -0.005367   0.060287
                 36         37         38         39         40         41    
      0      -0.006519   0.008610   0.001647   0.002606  -0.070927   0.029351
      1       0.002928   0.007451   0.001844   0.002871  -0.065691   0.026844
      2      -0.019615  -0.003382  -0.001019  -0.002081   0.064955  -0.033824
      3      -0.052567  -0.027767  -0.004289  -0.007071   0.168341  -0.000617
      4      -0.029176  -0.017651  -0.004946  -0.007489   0.222768  -0.000375
      5      -0.027780  -0.011702   0.007288   0.013598  -0.463144  -0.000319
      6       0.031432   0.002815   0.001607   0.002344  -0.129027  -0.000495
      7       0.023046   0.001295   0.003677   0.004001  -0.168609  -0.000353
      8      -0.017188  -0.001724  -0.009070  -0.010278   0.362228   0.000236
      9      -0.015468   0.004123   0.005280   0.006553  -0.018088   0.000150
     10      -0.008704   0.003356   0.000189   0.011784   0.009363  -0.000177
     11       0.010776  -0.001487   0.018685  -0.001918  -0.034656   0.000179
     12      -0.061086   0.013758   0.021064   0.028800   0.032536  -0.000034
     13       0.045382  -0.011618  -0.002462   0.041979   0.010124   0.000019
     14       0.030329  -0.003703   0.047630  -0.008519   0.003182   0.000005
     15       0.010929   0.047231  -0.003613   0.000098  -0.012762  -0.000849
     16       0.011085   0.054472  -0.001957  -0.000452  -0.003335  -0.001493
     17      -0.028829   0.039579  -0.006053   0.001338  -0.027705  -0.001263
     18       0.017961   0.011991   0.001551   0.000417  -0.000140  -0.000370
     19       0.011398   0.015328   0.000701  -0.000216  -0.009681  -0.000167
     20       0.019232   0.008575  -0.000228  -0.000557   0.052868  -0.000063
     21      -0.138212  -0.032155   0.002930   0.002934  -0.116150   0.261950
     22       0.128516   0.003526  -0.000758  -0.000910   0.001761  -0.502702
     23       0.319942   0.025719  -0.006527  -0.008579   0.205514   0.291645
     24       0.209555   0.025352  -0.002560  -0.003318   0.149686  -0.248477
     25       0.108856   0.006876  -0.003122  -0.006229   0.140000  -0.133028
     26      -0.228505  -0.015964   0.004669   0.007101  -0.221496  -0.316345
     27       0.206449   0.012409  -0.002337  -0.000421   0.014484  -0.350797
     28      -0.187084  -0.027620   0.002054   0.004275  -0.138478   0.324501
     29       0.300037   0.025467  -0.004299  -0.005456   0.177129   0.426530
     30      -0.083401  -0.015279  -0.018139  -0.005526   0.348878   0.003389
     31      -0.073510  -0.013856  -0.011901  -0.015610   0.249821   0.001018
     32       0.083089   0.011433   0.006687  -0.005005   0.026603   0.004562
     33       0.017982  -0.026145   0.017436  -0.038752   0.215085  -0.000046
     34      -0.013564   0.024147  -0.028073   0.024603   0.055725   0.003149
     35       0.006871   0.029163  -0.024345   0.012671   0.047964  -0.001736
     36       0.314637  -0.080795  -0.531047  -0.059769  -0.130419  -0.000009
     37      -0.088459   0.005253  -0.208928  -0.244568  -0.070243  -0.000205
     38      -0.250394   0.039645  -0.227618  -0.470935  -0.105021  -0.000027
     39       0.182853  -0.046690  -0.173112  -0.064848  -0.006637   0.000244
     40      -0.338648   0.088852   0.381645   0.140905   0.062812   0.000081
     41      -0.171959   0.014902  -0.538975   0.405604  -0.015067  -0.000103
     42       0.350016  -0.050315   0.366365  -0.301620  -0.079924   0.000038
     43      -0.204260   0.033131  -0.119183  -0.623776  -0.101283  -0.000019
     44      -0.018288   0.002823  -0.019029   0.199556   0.046359   0.000085
     45      -0.045913   0.065694  -0.010693   0.004423  -0.052310   0.020868
     46      -0.072838  -0.631124   0.023153   0.008631  -0.077887  -0.002392
     47       0.110931  -0.259258   0.013493  -0.007370   0.060976   0.006696
     48      -0.066597  -0.650771   0.026302   0.006088  -0.048299  -0.009001
     49      -0.060733  -0.153987   0.002423   0.005118  -0.043658   0.020683
     50       0.106244  -0.212192   0.020552  -0.008217   0.065281   0.006561
                 42         43         44         45         46         47    
      0      -0.001085  -0.001605  -0.052852  -0.008612   0.041713  -0.000481
      1      -0.001132   0.002753   0.072012   0.011482   0.017342  -0.000198
      2       0.000812   0.000070   0.011879   0.001837   0.080822  -0.000825
      3       0.001339  -0.000602  -0.000728  -0.000137  -0.000490  -0.001879
      4       0.001064  -0.000398   0.000854  -0.000120  -0.000781  -0.002435
      5       0.001140   0.000487   0.000292  -0.000168   0.002250   0.005139
      6       0.000222   0.000501  -0.000053  -0.000337  -0.000263  -0.048077
      7       0.000189  -0.000416   0.000169   0.000148   0.000108  -0.014127
      8      -0.000227   0.001090   0.000081  -0.000740  -0.001304  -0.074579
      9       0.000620   0.001128  -0.000142   0.000363   0.000020   0.002347
     10       0.007059   0.065041   0.003015  -0.032424   0.000072   0.002779
     11      -0.003124  -0.041359  -0.001564   0.018871  -0.000065  -0.000531
     12      -0.000063  -0.000667   0.000037  -0.000192   0.000014  -0.000222
     13       0.000157  -0.001372  -0.000108   0.001014   0.000004  -0.000309
     14       0.000623   0.001278   0.000061  -0.000659   0.000009  -0.000377
     15      -0.027913   0.037483  -0.012343   0.068768  -0.000117   0.000522
     16      -0.050707  -0.018936   0.008492  -0.049534  -0.000321   0.000340
     17      -0.036297   0.005998  -0.000717   0.002818  -0.000059   0.000728
     18      -0.001446  -0.000506   0.000155  -0.000317  -0.000358   0.000654
     19      -0.001174  -0.000088  -0.000152   0.000294  -0.000217   0.000244
     20       0.000779   0.000651  -0.000094   0.000114  -0.000264   0.001044
     21      -0.008363   0.011609   0.274095   0.044015  -0.116062   0.000579
     22       0.016210  -0.022332  -0.543333  -0.086905   0.240012   0.000950
     23      -0.009510   0.013793   0.335364   0.053689  -0.125084  -0.000718
     24       0.009502  -0.001857  -0.012594  -0.000949  -0.538936   0.006361
     25       0.004812  -0.000376   0.011047   0.002319  -0.291450   0.003526
     26       0.012276  -0.001900  -0.001866   0.000961  -0.668079   0.007722
     27       0.010741   0.010831   0.377036   0.061111   0.168310   0.000941
     28      -0.009400  -0.009323  -0.335815  -0.054436  -0.145336   0.000217
     29      -0.012760  -0.013496  -0.477203  -0.077306  -0.182852  -0.001100
     30       0.002141  -0.009492  -0.000149   0.003844   0.005278   0.556780
     31       0.000394  -0.004517  -0.000440   0.000848   0.002112   0.175113
     32       0.001073  -0.017650  -0.000779   0.007188   0.006633   0.806619
     33      -0.001496   0.002680   0.000601  -0.002428  -0.000011  -0.003238
     34      -0.079647  -0.765293  -0.033130   0.373312  -0.000378  -0.017861
     35       0.044473   0.460827   0.019521  -0.223189   0.000015   0.009458
     36      -0.000252   0.003125   0.000089  -0.001402   0.000046   0.000055
     37       0.000924   0.015221   0.000477  -0.006440   0.000016   0.000277
     38      -0.002463  -0.012175  -0.001065   0.009205   0.000183  -0.000425
     39       0.000919  -0.002839  -0.000072   0.000490   0.000026   0.001433
     40      -0.000769   0.004839   0.000141  -0.001299  -0.000001   0.001986
     41      -0.002326   0.003613  -0.000396   0.001650   0.000039   0.000729
     42      -0.000515  -0.003660  -0.000023   0.000971  -0.000049  -0.000902
     43      -0.000378   0.002536   0.000009  -0.000489  -0.000001   0.000416
     44      -0.001819   0.001712  -0.000204   0.001551  -0.000288   0.003514
     45       0.607624  -0.360835   0.111129  -0.609328   0.000806  -0.003093
     46      -0.071660   0.036217  -0.010570   0.058478  -0.000135   0.000239
     47       0.196054  -0.122865   0.037983  -0.209259   0.000069  -0.001001
     48      -0.276934  -0.072020   0.034747  -0.204113  -0.000833   0.000593
     49       0.674624   0.191024  -0.091841   0.535299   0.002892  -0.001918
     50       0.203147   0.061770  -0.029521   0.173363   0.000599  -0.001223
                  48         49         50    
      0      -0.000044  -0.000002   0.000002
      1       0.000039   0.000038  -0.000013
      2      -0.000033  -0.000053   0.000046
      3      -0.000007   0.000117   0.000033
      4       0.000125  -0.000214   0.000039
      5       0.000043   0.000549  -0.000128
      6       0.000111  -0.000089   0.000188
      7       0.000037  -0.000049  -0.000020
      8      -0.000038  -0.000437   0.000491
      9      -0.001746  -0.000418   0.000100
     10       0.001503   0.001267   0.000729
     11       0.000349  -0.000426  -0.000534
     12      -0.033653   0.043467  -0.028666
     13       0.017447   0.068311   0.011596
     14       0.011537  -0.006347  -0.074800
     15       0.000258   0.000012  -0.000425
     16      -0.000234  -0.000100  -0.000097
     17       0.000052  -0.000043   0.000310
     18       0.000088  -0.000176   0.000002
     19      -0.000041   0.000023   0.000054
     20      -0.000079  -0.000124  -0.000001
     21       0.000354   0.000365   0.000020
     22       0.000158   0.000017   0.000211
     23      -0.000149  -0.000086  -0.000213
     24       0.000149   0.000078  -0.000077
     25       0.000079  -0.000030  -0.000031
     26       0.000133   0.000025  -0.000052
     27       0.000061  -0.000009   0.000001
     28       0.000012   0.000100  -0.000097
     29      -0.000032   0.000109  -0.000120
     30       0.000330   0.001251  -0.001897
     31      -0.000064   0.000454   0.000027
     32       0.000106   0.001770  -0.002523
     33       0.003399   0.002355   0.001893
     34      -0.010735  -0.013847  -0.009755
     35       0.003372   0.006068   0.005195
     36       0.039996   0.064034   0.037559
     37      -0.483671  -0.561251  -0.440594
     38       0.284541   0.328420   0.237680
     39       0.558687  -0.626858   0.182501
     40       0.330202  -0.357493   0.109655
     41       0.035132  -0.036275  -0.001469
     42      -0.118745  -0.037539   0.176640
     43      -0.095602  -0.027733   0.170564
     44      -0.485942  -0.204822   0.797277
     45      -0.001200  -0.000212   0.002425
     46       0.000793  -0.000477  -0.000068
     47       0.001138  -0.000053   0.001497
     48       0.000231  -0.000162   0.000447
     49      -0.000465  -0.000573   0.000497
     50      -0.001811  -0.000122  -0.000079


-----------
IR SPECTRUM
-----------

 Mode    freq (cm**-1)   T**2         TX         TY         TZ
-------------------------------------------------------------------
   6:       117.77    8.295342  (  1.002223   2.237348  -1.511676)
   7:       156.47    2.252737  ( -1.326757  -0.053005   0.699744)
   8:       187.98    8.850451  ( -0.846015   2.643146   1.071675)
   9:       211.09    1.431313  (  0.309812  -1.045010  -0.493237)
  10:       314.80   10.986540  ( -2.010525   0.232823  -2.624904)
  11:       375.28    0.829321  (  0.392724  -0.308848  -0.761382)
  12:       415.89    3.274483  ( -1.583986   0.519951   0.703649)
  13:       597.53    5.543569  (  1.248208   0.288553  -1.975420)
  14:       645.14    0.572057  (  0.675840   0.328281   0.086770)
  15:       704.96   28.126611  (  3.651913   1.257512  -3.634392)
  16:       746.63   66.673094  (  5.797637  -4.940623  -2.941216)
  17:       763.79    0.601421  ( -0.243366  -0.735937  -0.024307)
  18:       913.04   11.008978  ( -2.960439  -0.801795   1.265662)
  19:       940.28   23.809148  ( -1.069141   1.484017  -4.523691)
  20:       971.77   14.956150  ( -2.899734  -0.702024  -2.460662)
  21:       984.36   29.181814  ( -4.229621   0.297477   3.347182)
  22:      1006.17    2.428617  ( -0.438579   1.074052  -1.040517)
  23:      1054.65    6.515761  ( -2.228606  -0.280245   1.212658)
  24:      1059.60    7.487134  (  0.435357   2.697490  -0.145416)
  25:      1086.13   38.648524  (  2.629384   5.187673   2.196113)
  26:      1135.55   35.561534  (  4.797960   3.518222   0.404014)
  27:      1230.84   17.892226  ( -1.201685  -0.441435  -4.031540)
  28:      1257.72   22.768343  ( -0.400078   1.740355   4.424867)
  29:      1280.58   61.988997  (  2.270240   0.507144   7.521823)
  30:      1333.19   30.667812  (  4.828932   2.660895  -0.518523)
  31:      1384.66   28.717823  ( -2.889002  -1.308217   4.319729)
  32:      1404.34    3.472206  ( -1.707784   0.614391   0.422142)
  33:      1432.53   57.023112  (  6.900372   2.819449   1.207760)
  34:      1458.24   15.078271  ( -2.359407   2.821886   1.244358)
  35:      1462.29  101.913567  ( -6.419276   3.126609   7.136581)
  36:      1471.83   69.238098  (  5.019532  -6.481072  -1.427622)
  37:      1491.43   16.864978  ( -3.286323  -1.625818  -1.849805)
  38:      1641.99   34.269182  ( -2.787161   0.749508  -5.093049)
  39:      1653.92   47.224743  ( -3.323262  -5.510893   2.410545)
  40:      1690.90  149.808743  (  4.681040   3.486396 -10.758330)
  41:      3066.91    0.739091  ( -0.708411  -0.325493   0.362353)
  42:      3079.89    7.018138  ( -2.242322  -1.405979  -0.115544)
  43:      3125.06    7.221715  (  2.318228   1.001477  -0.919011)
  44:      3131.84    0.057631  ( -0.122256   0.039507  -0.202790)
  45:      3132.96    1.344409  (  0.876773  -0.632100   0.419677)
  46:      3179.21    1.135211  (  0.878871   0.507625   0.324215)
  47:      3267.74    5.137822  (  0.928675  -0.137535   2.063121)
  48:      3409.34   32.357298  (  4.549689  -2.129179  -2.669125)
  49:      3509.00   67.923531  ( -3.586203  -7.418109  -0.185312)
  50:      3515.58   88.246165  (  2.566937  -1.381805   8.930152)

The first frequency considered to be a vibration is 6
The total number of vibrations considered is 45


--------------------------
THERMOCHEMISTRY AT 298.15K
--------------------------

Temperature         ... 298.15 K
Pressure            ... 1.00 atm
Total Mass          ... 100.14 AMU

Throughout the following assumptions are being made:
  (1) The electronic state is orbitally nondegenerate
  (2) There are no thermally accessible electronically excited states
  (3) Hindered rotations indicated by low frequency modes) are not
      treated as such but are treated as vibrations and this may
      case some error
  (4) All equations used are the standard statistical mechanics
      equations for an ideal gas
  (5) All vibrations are strinctly harmonic


------------
INNER ENERGY
------------

The inner energy is: U= E(el) + E(ZPE) + E(vib) + E(rot) + E(trans)
    E(el)   - is the total energy from the electronic structure calculation
              = E(kin-el) + E(nuc-el) + E(el-el) + E(nuc-nuc)
    E(ZPE)  - the the zero temperature vibrational energy from the frequency calculation
    E(vib)  - the the finite temperature correction to E(ZPE) due to population
              of excietd vibrational states
    E(rot)  - is the rotational thermal energy
    E(trans)- is the translational thermal energy

Summary of contributions to the inner energy U:
Electronic energy                ...   -326.01265618 Eh
Zero point energy                ...      0.15263930 Eh      95.78 kcal/mol
Thermal vibrational correction   ...      0.00450320 Eh       2.83 kcal/mol
Thermal rotational correction    ...      0.00141627 Eh       0.89 kcal/mol
Thermal translational correction ...      0.00141627 Eh       0.89 kcal/mol
-----------------------------------------------------------------------
Total thermal energy                   -325.85268113 Eh


Summary of corrections to the electronic energy:
(perhaps to be used in another calculation)
Total thermal correction                  0.00733574 Eh       4.60 kcal/mol
Non-thermal (ZPE) correction              0.15263930 Eh      95.78 kcal/mol
-----------------------------------------------------------------------
Total correction                          0.15997505 Eh     100.39 kcal/mol


--------
ENTHALPY
--------

The enthalpy is H = U + kB*T
                kB is Boltzmann's constant
Total free energy                 ...   -325.85268113 Eh 
Thermal Enthalpy correction       ...      0.00094421 Eh       0.59 kcal/mol
-----------------------------------------------------------------------
Total Enthalpy                    ...   -325.85173692 Eh


-------
ENTROPY
-------

The entropy contributions are T*S = T*(S(el)+S(vib)+S(rot)+S(trans)
     S(el)   - electronic entropy
     S(vib)  - vibrational entropy
     S(rot)  - rotational entropy
     S(trans)- translational entropy
The entropies will be listed as mutliplied by the temperature to get
units of energy

Electronic entropy                ...      0.00000000 Eh      0.00 kcal/mol
Vibrational entropy               ...      0.00760217 Eh      4.77 kcal/mol
Rotational entropy                ...      0.01192489 Eh      7.48 kcal/mol
Translational entropy             ...      0.01887324 Eh     11.84 kcal/mol
-----------------------------------------------------------------------
Final entropy term                ...      0.03840030 Eh     24.10 kcal/mol


CAUTION: The rotational entropy is not quite correctly treated here
         because it includes a symmetry number that is not yet correctly
         implemented in ORCA!
For a nonlinear molecule the correct rotational entropy is:
    S(rot) = R*(ln(qrot/sn)+1.5)
    R    = 8.31441 J/mol/K = 1.987191683e-3 kcal/mol/K
    qrot = 204534.8930843
    sn is the rotational symmetry number. We have assumed 3 here
       if it is different for your molecule then you should correct
       the printed rotational entropy by manually evaluating the equation
       as given above

For convenience we print out the resulting values for sn=1 - 12:
 sn= 1  qrot/sn=  204534.8931 T*S(rot)=     8.13 kcal/mol T*S(tot)=    24.75 kcal/mol
 sn= 2  qrot/sn=  102267.4465 T*S(rot)=     7.72 kcal/mol T*S(tot)=    24.34 kcal/mol
 sn= 3  qrot/sn=   68178.2977 T*S(rot)=     7.48 kcal/mol T*S(tot)=    24.10 kcal/mol
 sn= 4  qrot/sn=   51133.7233 T*S(rot)=     7.31 kcal/mol T*S(tot)=    23.93 kcal/mol
 sn= 5  qrot/sn=   40906.9786 T*S(rot)=     7.18 kcal/mol T*S(tot)=    23.79 kcal/mol
 sn= 6  qrot/sn=   34089.1488 T*S(rot)=     7.07 kcal/mol T*S(tot)=    23.69 kcal/mol
 sn= 7  qrot/sn=   29219.2704 T*S(rot)=     6.98 kcal/mol T*S(tot)=    23.59 kcal/mol
 sn= 8  qrot/sn=   25566.8616 T*S(rot)=     6.90 kcal/mol T*S(tot)=    23.52 kcal/mol
 sn= 9  qrot/sn=   22726.0992 T*S(rot)=     6.83 kcal/mol T*S(tot)=    23.45 kcal/mol
 sn=10  qrot/sn=   20453.4893 T*S(rot)=     6.77 kcal/mol T*S(tot)=    23.38 kcal/mol
 sn=11  qrot/sn=   18594.0812 T*S(rot)=     6.71 kcal/mol T*S(tot)=    23.33 kcal/mol
 sn=12  qrot/sn=   17044.5744 T*S(rot)=     6.66 kcal/mol T*S(tot)=    23.28 kcal/mol


-------------------
GIBBS FREE ENTHALPY
-------------------

The Gibbs free enthalpy is G = H - T*S

Total enthalpy                    ...   -325.85173692 Eh 
Total entropy correction          ...     -0.03840030 Eh    -24.10 kcal/mol
-----------------------------------------------------------------------
Final Gibbs free enthalpy         ...   -325.89013722 Eh

For completeness - the Gibbs free enthalpy minus the electronic energy
G-E(el)                           ...      0.12251896 Eh     76.88 kcal/mol


Timings for individual modules:

Sum of individual times         ...     1762.399 sec (=  29.373 min)
GTO integral calculation        ...        5.953 sec (=   0.099 min)   0.3 %
SCF iterations                  ...      124.949 sec (=   2.082 min)   7.1 %
SCF Gradient evaluation         ...       57.220 sec (=   0.954 min)   3.2 %
Geometry relaxation             ...        0.216 sec (=   0.004 min)   0.0 %
Analytical frequency calculation...     1574.061 sec (=  26.234 min)  89.3 %
                             ****ORCA TERMINATED NORMALLY****
TOTAL RUN TIME: 0 days 0 hours 29 minutes 23 seconds 970 msec
