
                                 *****************
                                 * O   R   C   A *
                                 *****************

           --- An Ab Initio, DFT and Semiempirical electronic structure package ---

                  #######################################################
                  #                        -***-                        #
                  #  Department of molecular theory and spectroscopy    #
                  #              Directorship: Frank Neese              #
                  # Max Planck Institute for Chemical Energy Conversion #
                  #                  D-45470 Muelheim/Ruhr              #
                  #                       Germany                       #
                  #                                                     #
                  #                  All rights reserved                #
                  #                        -***-                        #
                  #######################################################


                         Program Version 3.0.3 - RELEASE   -


 With contributions from (in alphabetic order):
   Ute Becker             : Parallelization
   Dmytro Bykov           : SCF Hessian
   Dmitry Ganyushin       : Spin-Orbit,Spin-Spin,Magnetic field MRCI
   Andreas Hansen         : Spin unrestricted coupled pair/coupled cluster methods
   Dimitrios Liakos       : Extrapolation schemes; parallel MDCI
   Robert Izsak           : Overlap fitted RIJCOSX, COSX-SCS-MP3
   Christian Kollmar      : KDIIS, OOCD, Brueckner-CCSD(T), CCSD density
   Simone Kossmann        : Meta GGA functionals, TD-DFT gradient, OOMP2, MP2 Hessian
   Taras Petrenko         : DFT Hessian,TD-DFT gradient, ASA and ECA modules, normal mode analysis, Resonance Raman, ABS, FL, XAS/XES, NRVS
   Christoph Reimann      : Effective Core Potentials
   Michael Roemelt        : Restricted open shell CIS
   Christoph Riplinger    : Improved optimizer, TS searches, QM/MM, DLPNO-CCSD
   Barbara Sandhoefer     : DKH picture change effects
   Igor Schapiro          : Molecular dynamics
   Kantharuban Sivalingam : CASSCF convergence, NEVPT2
   Boris Wezisla          : Elementary symmetry handling
   Frank Wennmohs         : Technical directorship


 We gratefully acknowledge several colleagues who have allowed us to
 interface, adapt or use parts of their codes:
   Stefan Grimme, W. Hujo, H. Kruse, T. Risthaus : VdW corrections, initial TS optimization,
                                                   DFT functionals, gCP
   Ed Valeev                                     : LibInt (2-el integral package), F12 methods
   Garnet Chan, S. Sharma, R. Olivares           : DMRG
   Ulf Ekstrom                                   : XCFun DFT Library
   Mihaly Kallay                                 : mrcc  (arbitrary order and MRCC methods)
   Andreas Klamt, Michael Diedenhofen            : otool_cosmo (COSMO solvation model)
   Frank Weinhold                                : gennbo (NPA and NBO analysis)
   Christopher J. Cramer and Donald G. Truhlar   : smd solvation model


 Your calculation uses the libint2 library for the computation of 2-el integrals
 For citations please refer to: http://libint.valeyev.net

 This ORCA versions uses:
   CBLAS   interface :  Fast vector & matrix operations
   LAPACKE interface :  Fast linear algebra routines
   SCALAPACK package :  Parallel linear algebra routines


Your calculation utilizes the basis: Ahlrichs-TZV
Cite in your paper:
H - Kr: A. Schaefer, H. Horn and R. Ahlrichs, J. Chem. Phys. 97, 2571 (1992).

The def2-TZV basis will be loaded
Cite in your paper:
 	F. Weigend, R. Ahlrichs, Phys. Chem. Chem. Phys. 2005, 7, 3297.

================================================================================
                                        WARNINGS
                       Please study these warnings very carefully!
================================================================================
Now building the actual basis set
WARNING: Geometry optimizations can change the point-group symmetry!

WARNING: Geometry Optimization
  ===> : Switching off AutoStart
         For restart on a previous wavefunction, please use MOREAD


INFO   : the flag for use of LIBINT has been found!

================================================================================
                                       INPUT FILE
================================================================================
NAME = 4759_+.inp
|  1> ! NORI PBE0 def2-TZVP UseSym TightOPT Freq TightSCF Grid3 FinalGrid5 XYZFile
|  2> % pal
|  3>     nprocs 8
|  4> end
|  5> %method
|  6>     SymThresh 5.0e-2
|  7> end
|  8> % geom 
|  9>     MaxIter 10
| 10> end 
| 11> % maxcore 2000
| 12> % output
| 13>     printlevel mini
| 14>     print[ P_Basis ] 0
| 15>     print[ P_SCFInfo ] 1
| 16>     print[ P_SCFIterInfo ] 1
| 17>     print[ P_OrbEn ] 0
| 18>     print[ P_Cartesian ] 0
| 19> end
| 20> % elprop
| 21>     Dipole false
| 22> end
| 23> *xyz 1 1
| 24>  C        0.4603943358    -0.0469395228    -0.6397591043 
| 25>  C        1.8096630422     0.4259576127    -0.1785755652 
| 26>  C        3.0960206053    -0.2568179259    -0.5945648452 
| 27>  O        3.1027048665    -1.2492259719    -1.5436968520 
| 28>  C        2.7670569517     1.1045967170    -1.1198589943 
| 29>  C        2.4834980944     1.3572524812    -2.5664485505 
| 30>  N        3.5664319809     2.2193251714    -0.5267513109 
| 31>  H       -0.2440318686     0.7824457324    -0.7240716071 
| 32>  H        0.0524381065    -0.7558966071     0.0830773034 
| 33>  H        0.5155832881    -0.5510428100    -1.6039889373 
| 34>  H        1.8276420470     0.7950511159     0.8454103375 
| 35>  H        3.8763749102    -0.3289112390     0.1656727028 
| 36>  H        2.8710963569    -2.0919287404    -1.1392166892 
| 37>  H        3.4072622043     1.5187321480    -3.1295993541 
| 38>  H        1.8250123860     2.2194188303    -2.7045084731 
| 39>  H        2.0000759451     0.4862198109    -3.0019685604 
| 40>  H        4.4467208471     2.3458416106    -1.0342737783 
| 41>  H        3.7931424755     2.0438986124     0.4538306994 
| 42>  H        3.0487434249     3.1016429744    -0.5728684210 
| 43> *
| 44> 
| 45>                          ****END OF INPUT****
================================================================================

The point group is C1 - hence turning off symmetry
If this is a round-off problem, please increase the symmetry
        detection tolerance (%method SymThresh)


                       *****************************
                       * Geometry Optimization Run *
                       *****************************

Geometry optimization settings:
Update method            Update   .... BFGS
Choice of coordinates    CoordSys .... Redundant Internals
Initial Hessian          InHess   .... Almoef's Model

Convergence Tolerances:
Energy Change            TolE     ....  1.0000e-06 Eh
Max. Gradient            TolMAXG  ....  1.0000e-04 Eh/bohr
RMS Gradient             TolRMSG  ....  3.0000e-05 Eh/bohr
Max. Displacement        TolMAXD  ....  1.0000e-03 bohr
RMS Displacement         TolRMSD  ....  6.0000e-04 bohr

------------------------------------------------------------------------------
                        ORCA OPTIMIZATION COORDINATE SETUP
------------------------------------------------------------------------------

The optimization will be done in new redundant internal coordinates
Making redundant internal coordinates   ...  (new redundants) done
Evaluating the initial hessian          ...  (Almloef) done
Evaluating the coordinates              ...  done
Calculating the B-matrix                .... done
Calculating the G-matrix                .... done
Diagonalizing the G-matrix              .... done
The first mode is                       ....   59
The number of degrees of freedom        ....   51

    -----------------------------------------------------------------
                    Redundant Internal Coordinates


    -----------------------------------------------------------------
         Definition                    Initial Value    Approx d2E/dq
    -----------------------------------------------------------------
      1. B(C   1,C   0)                  1.5023         0.413620   
      2. B(C   2,C   1)                  1.5146         0.395351   
      3. B(O   3,C   2)                  1.3732         0.595149   
      4. B(C   4,C   2)                  1.4959         0.423491   
      5. B(C   4,C   1)                  1.5044         0.410438   
      6. B(C   5,C   4)                  1.4956         0.423875   
      7. B(N   6,C   4)                  1.4945         0.381262   
      8. B(H   7,C   0)                  1.0914         0.358222   
      9. B(H   8,C   0)                  1.0916         0.358020   
     10. B(H   9,C   0)                  1.0895         0.360826   
     11. B(H  10,C   1)                  1.0886         0.361926   
     12. B(H  11,C   2)                  1.0918         0.357676   
     13. B(H  12,O   3)                  0.9630         0.514232   
     14. B(H  13,C   5)                  1.0939         0.355015   
     15. B(H  14,C   5)                  1.0936         0.355349   
     16. B(H  15,C   5)                  1.0872         0.363781   
     17. B(H  16,N   6)                  1.0240         0.411077   
     18. B(H  17,N   6)                  1.0216         0.414621   
     19. B(H  18,N   6)                  1.0240         0.410989   
     20. A(H   7,C   0,H   9)          108.4179         0.290693   
     21. A(C   1,C   0,H   7)          111.3576         0.329521   
     22. A(H   7,C   0,H   8)          107.6672         0.290336   
     23. A(H   8,C   0,H   9)          107.7276         0.290667   
     24. A(C   1,C   0,H   8)          109.6836         0.329490   
     25. A(C   1,C   0,H   9)          111.8304         0.329915   
     26. A(C   2,C   1,H  10)          113.4011         0.327629   
     27. A(C   4,C   1,H  10)          115.1561         0.329660   
     28. A(C   0,C   1,C   4)          121.4332         0.375792   
     29. A(C   0,C   1,C   2)          122.4517         0.373371   
     30. A(C   2,C   1,C   4)           59.4028         0.372875   
     31. A(C   0,C   1,H  10)          114.2250         0.330081   
     32. A(O   3,C   2,C   4)          114.5875         0.400045   
     33. A(C   4,C   2,H  11)          117.5024         0.330724   
     34. A(C   1,C   2,H  11)          116.4583         0.326992   
     35. A(C   1,C   2,C   4)           59.9594         0.374893   
     36. A(C   1,C   2,O   3)          121.3157         0.395242   
     37. A(O   3,C   2,H  11)          115.4711         0.347929   
     38. A(C   2,O   3,H  12)          109.9332         0.366828   
     39. A(C   1,C   4,C   2)           60.6378         0.377327   
     40. A(C   5,C   4,N   6)          111.0553         0.370279   
     41. A(C   2,C   4,N   6)          114.9526         0.370222   
     42. A(C   1,C   4,N   6)          115.3770         0.368236   
     43. A(C   1,C   4,C   5)          124.1065         0.377386   
     44. A(C   2,C   4,C   5)          122.3505         0.379437   
     45. A(H  13,C   5,H  15)          106.7102         0.290654   
     46. A(C   4,C   5,H  15)          109.6582         0.331702   
     47. A(H  13,C   5,H  14)          109.0935         0.289587   
     48. A(C   4,C   5,H  14)          111.6811         0.330417   
     49. A(H  14,C   5,H  15)          108.2584         0.290697   
     50. A(C   4,C   5,H  13)          111.2708         0.330366   
     51. A(H  17,N   6,H  18)          107.6599         0.298738   
     52. A(H  16,N   6,H  18)          107.8083         0.298330   
     53. A(C   4,N   6,H  18)          110.7570         0.327766   
     54. A(H  16,N   6,H  17)          107.8289         0.298748   
     55. A(C   4,N   6,H  17)          111.8110         0.328242   
     56. A(C   4,N   6,H  16)          110.8116         0.327778   
     57. D(C   4,C   1,C   0,H   9)     43.8490         0.013546   
     58. D(C   2,C   1,C   0,H   8)     91.8585         0.013546   
     59. D(C   4,C   1,C   0,H   7)    -77.6240         0.013546   
     60. D(H  10,C   1,C   0,H   8)    -51.4844         0.013546   
     61. D(C   2,C   1,C   0,H   9)    -27.5920         0.013546   
     62. D(C   2,C   1,C   0,H   7)   -149.0650         0.013546   
     63. D(C   4,C   1,C   0,H   8)    163.2995         0.013546   
     64. D(H  10,C   1,C   0,H   9)   -170.9349         0.013546   
     65. D(H  10,C   1,C   0,H   7)     67.5921         0.013546   
     66. D(O   3,C   2,C   1,C   4)   -102.1684         0.012412   
     67. D(C   4,C   2,C   1,C   0)    109.9961         0.012412   
     68. D(O   3,C   2,C   1,H  10)    151.4400         0.012412   
     69. D(O   3,C   2,C   1,C   0)      7.8278         0.012412   
     70. D(H  11,C   2,C   1,C   0)   -142.0621         0.012412   
     71. D(C   4,C   2,C   1,H  10)   -106.3916         0.012412   
     72. D(H  11,C   2,C   1,H  10)      1.5501         0.012412   
     73. D(H  11,C   2,C   1,C   4)    107.9418         0.012412   
     74. D(H  12,O   3,C   2,H  11)     67.4878         0.028508   
     75. D(H  12,O   3,C   2,C   1)    -82.6793         0.028508   
     76. D(H  12,O   3,C   2,C   4)   -151.2082         0.028508   
     77. D(C   1,C   4,C   2,H  11)   -106.2115         0.014185   
     78. D(C   1,C   4,C   2,O   3)    113.3073         0.014185   
     79. D(N   6,C   4,C   1,H  10)     -2.1798         0.013344   
     80. D(C   5,C   4,C   1,H  10)   -145.4508         0.013344   
     81. D(C   5,C   4,C   1,C   2)    111.1314         0.013344   
     82. D(N   6,C   4,C   1,C   0)    142.7373         0.013344   
     83. D(C   5,C   4,C   1,C   0)     -0.5337         0.013344   
     84. D(C   2,C   4,C   1,H  10)    103.4178         0.013344   
     85. D(C   2,C   4,C   1,C   0)   -111.6651         0.013344   
     86. D(C   5,C   4,C   2,C   1)   -113.9057         0.014185   
     87. D(N   6,C   4,C   1,C   2)   -105.5976         0.013344   
     88. D(N   6,C   4,C   2,H  11)      0.0839         0.014185   
     89. D(N   6,C   4,C   2,O   3)   -140.3972         0.014185   
     90. D(N   6,C   4,C   2,C   1)    106.2955         0.014185   
     91. D(C   5,C   4,C   2,H  11)    139.8828         0.014185   
     92. D(C   5,C   4,C   2,O   3)     -0.5984         0.014185   
     93. D(H  15,C   5,C   4,N   6)    173.6994         0.014210   
     94. D(H  15,C   5,C   4,C   2)     32.5352         0.014210   
     95. D(H  15,C   5,C   4,C   1)    -41.6795         0.014210   
     96. D(H  14,C   5,C   4,N   6)    -66.2978         0.014210   
     97. D(H  14,C   5,C   4,C   2)    152.5380         0.014210   
     98. D(H  14,C   5,C   4,C   1)     78.3234         0.014210   
     99. D(H  13,C   5,C   4,N   6)     55.8781         0.014210   
    100. D(H  13,C   5,C   4,C   2)    -85.2861         0.014210   
    101. D(H  13,C   5,C   4,C   1)   -159.5008         0.014210   
    102. D(H  18,N   6,C   4,C   5)     61.8065         0.013309   
    103. D(H  18,N   6,C   4,C   2)   -153.9472         0.013309   
    104. D(H  18,N   6,C   4,C   1)    -86.1480         0.013309   
    105. D(H  17,N   6,C   4,C   5)   -178.1198         0.013309   
    106. D(H  17,N   6,C   4,C   2)    -33.8734         0.013309   
    107. D(H  17,N   6,C   4,C   1)     33.9257         0.013309   
    108. D(H  16,N   6,C   4,C   5)    -57.7941         0.013309   
    109. D(H  16,N   6,C   4,C   2)     86.4523         0.013309   
    110. D(H  16,N   6,C   4,C   1)    154.2514         0.013309   
    -----------------------------------------------------------------

Number of atoms                         .... 19
Number of degrees of freedom            .... 110

         *************************************************************
         *                GEOMETRY OPTIMIZATION CYCLE   1            *
         *************************************************************


           ************************************************************
           *        Program running with 8 parallel MPI-processes     *
           *              working on a common directory               *
           ************************************************************
           ************************************************************
           *              Shut down parallel processing               *
           ************************************************************


           ************************************************************
           *        Program running with 8 parallel MPI-processes     *
           *              working on a common directory               *
           ************************************************************
------------
SCF SETTINGS
------------
Hamiltonian:
 Density Functional     Method          .... DFT(GTOs)
 Exchange Functional    Exchange        .... PBE
   PBE kappa parameter  XKappa          ....  0.804000
 Correlation Functional Correlation     .... PBE
 LDA part of GGA corr.  LDAOpt          .... PW91-LDA
 Gradients option       PostSCFGGA      .... off
 Hybrid DFT is turned on
   Fraction HF Exchange ScalHFX         ....  0.250000
   Scaling of DF-GGA-X  ScalDFX         ....  0.750000
   Scaling of DF-GGA-C  ScalDFC         ....  1.000000
   Scaling of DF-LDA-C  ScalLDAC        ....  1.000000
   Perturbative correction              ....  0.000000
   NL short-range parameter             ....  6.900000


General Settings:
 Integral files         IntName         .... 4759_+
 Hartree-Fock type      HFTyp           .... RHF
 Total Charge           Charge          ....    1
 Multiplicity           Mult            ....    1
 Number of Electrons    NEL             ....   56
 Basis Dimension        Dim             ....  289
 Nuclear Repulsion      ENuc            ....    342.9850811356 Eh

Convergence Acceleration:
 DIIS                   CNVDIIS         .... on
   Start iteration      DIISMaxIt       ....    12
   Startup error        DIISStart       ....  0.200000
   # of expansion vecs  DIISMaxEq       ....     5
   Bias factor          DIISBfac        ....   1.050
   Max. coefficient     DIISMaxC        ....  10.000
 Newton-Raphson         CNVNR           .... off
 SOSCF                  CNVSOSCF        .... on
   Start iteration      SOSCFMaxIt      ....   150
   Startup grad/error   SOSCFStart      ....  0.003300
 Level Shifting         CNVShift        .... on
   Level shift para.    LevelShift      ....    0.2500
   Turn off err/grad.   ShiftErr        ....    0.0010
 Zerner damping         CNVZerner       .... off
 Static damping         CNVDamp         .... on
   Fraction old density DampFac         ....    0.7000
   Max. Damping (<1)    DampMax         ....    0.9800
   Min. Damping (>=0)   DampMin         ....    0.0000
   Turn off err/grad.   DampErr         ....    0.1000
 Fernandez-Rico         CNVRico         .... off

SCF Procedure:
 Maximum # iterations   MaxIter         ....   125
 SCF integral mode      SCFMode         .... Direct
   Integral package                     .... LIBINT
 Reset frequeny         DirectResetFreq ....    20
 Integral Threshold     Thresh          ....  2.500e-11 Eh
 Primitive CutOff       TCut            ....  2.500e-12 Eh

Convergence Tolerance:
 Convergence Check Mode ConvCheckMode   .... Total+1el-Energy
 Energy Change          TolE            ....  1.000e-08 Eh
 1-El. energy change                    ....  1.000e-05 Eh
 Orbital Gradient       TolG            ....  1.000e-05
 Orbital Rotation angle TolX            ....  1.000e-05
 DIIS Error             TolErr          ....  5.000e-07


Diagonalization of the overlap matrix:
Smallest eigenvalue                        ... 1.050e-04
Time for diagonalization                   ...    0.021 sec
Threshold for overlap eigenvalues          ... 1.000e-08
Number of eigenvalues below threshold      ... 0
Time for construction of square roots      ...    0.009 sec
Total time needed                          ...    0.030 sec

-------------------
DFT GRID GENERATION
-------------------

General Integration Accuracy     IntAcc      ...  4.340
Radial Grid Type                 RadialGrid  ... Gauss-Chebyshev
Angular Grid (max. acc.)         AngularGrid ... Lebedev-194
Angular grid pruning method      GridPruning ... 3 (G Style)
Weight generation scheme         WeightScheme... Becke
Basis function cutoff            BFCut       ...    1.0000e-11
Integration weight cutoff        WCut        ...    1.0000e-14
Grids for H and He will be reduced by one unit

# of grid points (after initial pruning)     ...  41422 (   0.0 sec)
# of grid points (after weights+screening)   ...  37591 (   0.0 sec)
nearest neighbour list constructed           ...    0.0 sec
Grid point re-assignment to atoms done       ...    0.0 sec
Grid point division into batches done        ...    0.1 sec
Reduced shell lists constructed in    0.1 sec

Total number of grid points                  ...    37591
Total number of batches                      ...      598
Average number of points per batch           ...       62
Average number of grid points per atom       ...     1978
Average number of shells per batch           ...   102.30 (81.84%)
Average number of basis functions per batch  ...   248.43 (85.96%)
Average number of large shells per batch     ...    83.68 (81.80%)
Average number of large basis fcns per batch ...   201.13 (80.96%)
Maximum spatial batch extension              ...   2.50,  2.52,  2.45 au
Average spatial batch extension              ...   0.16,  0.15,  0.15 au

Time for grid setup =    0.189 sec

Loading Hartree-Fock densities                     ... done
Calculating cut-offs                               ... done
Setting up the integral package                    ... done
Initializing the effective Hamiltonian             ... done
Starting the Coulomb interaction                   ... done (   0.0 sec)
Reading the grid                                   ... done
Mapping shells                                     ... done
Starting the XC term evaluation                    ... done (   0.2 sec)
  promolecular density results
     # of electrons  =     56.997600077
     EX              =    -43.903409971
     EC              =     -1.888217600
     EX+EC           =    -45.791627571
Transforming the Hamiltonian                       ... done (   0.0 sec)
Diagonalizing the Hamiltonian                      ... done (   0.0 sec)
Back transforming the eigenvectors                 ... done (   0.0 sec)
Now organizing SCF variables                       ... done
--------------
SCF ITERATIONS
--------------
ITER       Energy         Delta-E        Max-DP      RMS-DP      [F,P]     Damp
               ***  Starting incremental Fock matrix formation  ***
  0   -326.9953146039   0.000000000000 0.18923265  0.00174189  0.2271012 0.7000
  1   -327.0894978388  -0.094183234954 0.15928394  0.00140757  0.0970373 0.7000
                               ***Turning on DIIS***
  2   -327.1285742549  -0.039076416019 0.21860882  0.00216766  0.0361913 0.0000
  3   -327.1873233179  -0.058749063088 0.13216673  0.00111278  0.0542905 0.0000
  4   -327.2013323493  -0.014009031366 0.03080141  0.00027782  0.0082980 0.0000
  5   -327.2017970774  -0.000464728105 0.01463953  0.00012537  0.0062456 0.0000
                      *** Initiating the SOSCF procedure ***
                           *** Shutting down DIIS ***
                      *** Re-Reading the Fockian *** 
                      *** Removing any level shift *** 
ITER      Energy       Delta-E        Grad      Rot      Max-DP    RMS-DP
  6   -327.20185109  -0.0000540144  0.000224  0.000224  0.003440  0.000036
               *** Restarting incremental Fock matrix formation ***
  7   -327.20185469  -0.0000036016  0.000110  0.000409  0.000964  0.000017
  8   -327.20185510  -0.0000004049  0.000024  0.000151  0.000485  0.000007
  9   -327.20185516  -0.0000000569  0.000021  0.000081  0.000340  0.000004
 10   -327.20185519  -0.0000000305  0.000003  0.000004  0.000016  0.000000
 11   -327.20185519   0.0000000007  0.000003  0.000005  0.000008  0.000000
                  ***Gradient check signals convergence***
              ***Rediagonalizing the Fockian in SOSCF/NRSCF***

               *****************************************************
               *                     SUCCESS                       *
               *           SCF CONVERGED AFTER  12 CYCLES          *
               *****************************************************

Setting up the final grid:

General Integration Accuracy     IntAcc      ...  5.010
Radial Grid Type                 RadialGrid  ... Gauss-Chebyshev
Angular Grid (max. acc.)         AngularGrid ... Lebedev-434
Angular grid pruning method      GridPruning ... 3 (G Style)
Weight generation scheme         WeightScheme... Becke
Basis function cutoff            BFCut       ...    1.0000e-11
Integration weight cutoff        WCut        ...    1.0000e-14
Grids for H and He will be reduced by one unit

# of grid points (after initial pruning)     ... 155226 (   0.0 sec)
# of grid points (after weights+screening)   ... 139222 (   0.1 sec)
nearest neighbour list constructed           ...    0.0 sec
Grid point re-assignment to atoms done       ...    0.0 sec
Grid point division into batches done        ...    0.8 sec
Reduced shell lists constructed in    1.1 sec

Total number of grid points                  ...   139222
Total number of batches                      ...     2187
Average number of points per batch           ...       63
Average number of grid points per atom       ...     7327
Average number of shells per batch           ...   100.37 (80.30%)
Average number of basis functions per batch  ...   243.67 (84.31%)
Average number of large shells per batch     ...    81.09 (80.79%)
Average number of large basis fcns per batch ...   194.37 (79.77%)
Maximum spatial batch extension              ...   2.87,  3.58,  2.92 au
Average spatial batch extension              ...   0.10,  0.10,  0.11 au

Final grid set up in    1.2 sec
Final integration                            ... done (   0.7 sec)
Change in XC energy                          ...     0.000422636
Integrated number of electrons               ...    56.000059123
Previous integrated no of electrons          ...    56.000824594
Total Energy       :         -327.20143255 Eh           -8903.60363 eV
  Last Energy change         ...   -1.8207e-09  Tolerance :   1.0000e-08
  Last MAX-Density change    ...    1.0412e-05  Tolerance :   1.0000e-07
             **** THE GBW FILE WAS UPDATED (4759_+.gbw) ****
             **** DENSITY FILE WAS UPDATED (4759_+.scfp.tmp) ****
             **** ENERGY FILE WAS UPDATED (4759_+.en.tmp) ****
Total SCF time: 0 days 0 hours 1 min 12 sec 
           ************************************************************
           *              Shut down parallel processing               *
           ************************************************************

-------------------------   --------------------
FINAL SINGLE POINT ENERGY      -327.201432550752
-------------------------   --------------------



           ************************************************************
           *        Program running with 8 parallel MPI-processes     *
           *              working on a common directory               *
           ************************************************************
------------------------------------------------------------------------------
                         ORCA SCF GRADIENT CALCULATION
------------------------------------------------------------------------------

Gradient of the Kohn-Sham DFT energy:
Kohn-Sham wavefunction type      ... RKS
Hartree-Fock exchange scaling    ...    0.250
Number of operators              ...    1
Number of atoms                  ...   19
Basis set dimensions             ...  289
Integral neglect threshold       ... 2.5e-11
Integral primitive cutoff        ... 2.5e-12

Nuclear repulsion gradient       ... done
One Electron Gradient            ... done
Pre-screening matrix             ... done
Starting the two electron gradient:
Two electron gradient done
Exchange-correlation gradient    ... done

------------------
CARTESIAN GRADIENT
------------------

   1   C   :   -0.000035998   -0.000179383    0.000086586
   2   C   :    0.000316429   -0.000093506    0.000085491
   3   C   :   -0.000081874   -0.000044271   -0.000171624
   4   O   :    0.000066007    0.000032097    0.000027518
   5   C   :   -0.000136713   -0.000069407   -0.000266652
   6   C   :    0.000131470    0.000114992    0.000276363
   7   N   :    0.000071173   -0.000064775    0.000146791
   8   H   :    0.000005443   -0.000026900   -0.000004018
   9   H   :   -0.000056725    0.000140472    0.000088614
  10   H   :   -0.000011203    0.000117355   -0.000118689
  11   H   :   -0.000070290   -0.000033550   -0.000042925
  12   H   :    0.000039165    0.000077400    0.000140714
  13   H   :   -0.000064421   -0.000056888    0.000048843
  14   H   :   -0.000064451    0.000000481    0.000041505
  15   H   :   -0.000007159    0.000013642   -0.000109801
  16   H   :    0.000073709   -0.000005036   -0.000109637
  17   H   :   -0.000176445    0.000144898   -0.000047247
  18   H   :    0.000047441   -0.000046641   -0.000022941
  19   H   :   -0.000045558   -0.000020979   -0.000048892

Norm of the cartesian gradient     ...    0.000798842
RMS gradient                       ...    0.000105809
MAX gradient                       ...    0.000316429

-------
TIMINGS
-------

Total SCF gradient time            ...       30.638 sec

One electron gradient       ....       0.108 sec  (  0.4%)
Prescreening matrices       ....       0.363 sec  (  1.2%)
Two electron gradient       ....      26.043 sec  ( 85.0%)
XC gradient                 ....       3.365 sec  ( 11.0%)
           ************************************************************
           *              Shut down parallel processing               *
           ************************************************************
------------------------------------------------------------------------------
                         ORCA GEOMETRY RELAXATION STEP
------------------------------------------------------------------------------

Reading the OPT-File                    .... done
Getting information on internals        .... done
Copying old internal coords+grads       .... done
Making the new internal coordinates     .... (new redundants).... done
Validating the new internal coordinates .... (new redundants).... done
Calculating the B-matrix                .... done
Calculating the G,G- and P matrices     .... done
Transforming gradient to internals      .... done
Projecting the internal gradient        .... done
Number of atoms                         ....  19
Number of internal coordinates          .... 110
Current Energy                          ....  -327.201432551 Eh
Current gradient norm                   ....     0.000798842 Eh/bohr
Maximum allowed component of the step   ....  0.300
Current trust radius                    ....  0.300
Evaluating the initial hessian          ....  (Almloef) done
Projecting the Hessian                  .... done
Forming the augmented Hessian           .... done
Diagonalizing the augmented Hessian     .... done
Last element of RFO vector              ....  0.999980680
Lowest eigenvalues of augmented Hessian:
 -0.000001768  0.013309127  0.013545796  0.014210593  0.028508159
Length of the computed step             ....  0.006216244
The final length of the internal step   ....  0.006216244
Converting the step to cartesian space:
 Initial RMS(Int)=    0.0005926956
Transforming coordinates:
 Iter   0:  RMS(Cart)=    0.0011456640 RMS(Int)=    0.0005926804
 Iter   1:  RMS(Cart)=    0.0000006614 RMS(Int)=    0.0000004161
 Iter   2:  RMS(Cart)=    0.0000000008 RMS(Int)=    0.0000000006
done
Storing new coordinates                 .... done

                                .--------------------.
          ----------------------|Geometry convergence|---------------------
          Item                value                 Tolerance   Converged
          -----------------------------------------------------------------
          RMS gradient        0.00005409            0.00003000      NO
          MAX gradient        0.00022705            0.00010000      NO
          RMS step            0.00059270            0.00060000      YES
          MAX step            0.00180762            0.00100000      NO
          ....................................................
          Max(Bonds)      0.0003      Max(Angles)    0.03
          Max(Dihed)        0.10      Max(Improp)    0.00
          -----------------------------------------------------------------

The optimization has not yet converged - more geometry cycles are needed


    ---------------------------------------------------------------------------
                         Redundant Internal Coordinates
                            (Angstroem and degrees)

        Definition                    Value    dE/dq     Step     New-Value
    ----------------------------------------------------------------------------
     1. B(C   1,C   0)                1.5023  0.000084 -0.0001    1.5022   
     2. B(C   2,C   1)                1.5146 -0.000053  0.0001    1.5147   
     3. B(O   3,C   2)                1.3732  0.000072 -0.0001    1.3732   
     4. B(C   4,C   2)                1.4959  0.000014 -0.0001    1.4958   
     5. B(C   4,C   1)                1.5044 -0.000063  0.0001    1.5045   
     6. B(C   5,C   4)                1.4956 -0.000143  0.0002    1.4958   
     7. B(N   6,C   4)                1.4945 -0.000097  0.0001    1.4946   
     8. B(H   7,C   0)                1.0914  0.000011 -0.0000    1.0914   
     9. B(H   8,C   0)                1.0916  0.000170 -0.0003    1.0913   
    10. B(H   9,C   0)                1.0895 -0.000166  0.0002    1.0897   
    11. B(H  10,C   1)                1.0886 -0.000016  0.0000    1.0886   
    12. B(H  11,C   2)                1.0918  0.000096 -0.0001    1.0917   
    13. B(H  12,O   3)                0.9630  0.000025 -0.0000    0.9630   
    14. B(H  13,C   5)                1.0939 -0.000041  0.0001    1.0939   
    15. B(H  14,C   5)                1.0936  0.000093 -0.0001    1.0935   
    16. B(H  15,C   5)                1.0872 -0.000124  0.0002    1.0874   
    17. B(H  16,N   6)                1.0240 -0.000227  0.0003    1.0243   
    18. B(H  17,N   6)                1.0216 -0.000036  0.0000    1.0217   
    19. B(H  18,N   6)                1.0240  0.000061 -0.0001    1.0239   
    20. A(H   7,C   0,H   9)          108.42 -0.000027    0.00    108.42   
    21. A(C   1,C   0,H   7)          111.36 -0.000012    0.00    111.36   
    22. A(H   7,C   0,H   8)          107.67  0.000035   -0.01    107.66   
    23. A(H   8,C   0,H   9)          107.73 -0.000016    0.01    107.73   
    24. A(C   1,C   0,H   8)          109.68 -0.000045    0.01    109.69   
    25. A(C   1,C   0,H   9)          111.83  0.000065   -0.01    111.82   
    26. A(C   2,C   1,H  10)          113.40  0.000051   -0.02    113.38   
    27. A(C   4,C   1,H  10)          115.16  0.000025    0.01    115.16   
    28. A(C   0,C   1,C   4)          121.43  0.000015   -0.03    121.40   
    29. A(C   0,C   1,C   2)          122.45 -0.000027    0.01    122.47   
    30. A(C   2,C   1,C   4)           59.40  0.000029   -0.01     59.40   
    31. A(C   0,C   1,H  10)          114.23 -0.000049    0.02    114.24   
    32. A(O   3,C   2,C   4)          114.59 -0.000010    0.02    114.61   
    33. A(C   4,C   2,H  11)          117.50  0.000056   -0.03    117.47   
    34. A(C   1,C   2,H  11)          116.46  0.000033   -0.01    116.45   
    35. A(C   1,C   2,C   4)           59.96 -0.000017    0.00     59.96   
    36. A(C   1,C   2,O   3)          121.32  0.000013   -0.01    121.31   
    37. A(O   3,C   2,H  11)          115.47 -0.000048    0.01    115.48   
    38. A(C   2,O   3,H  12)          109.93  0.000144   -0.02    109.91   
    39. A(C   1,C   4,C   2)           60.64 -0.000011    0.00     60.64   
    40. A(C   5,C   4,N   6)          111.06 -0.000030    0.01    111.06   
    41. A(C   2,C   4,N   6)          114.95  0.000049   -0.02    114.94   
    42. A(C   1,C   4,N   6)          115.38  0.000015    0.00    115.38   
    43. A(C   1,C   4,C   5)          124.11  0.000022   -0.02    124.09   
    44. A(C   2,C   4,C   5)          122.35 -0.000029    0.02    122.37   
    45. A(H  13,C   5,H  15)          106.71 -0.000044    0.01    106.72   
    46. A(C   4,C   5,H  15)          109.66  0.000039   -0.01    109.65   
    47. A(H  13,C   5,H  14)          109.09  0.000021   -0.01    109.09   
    48. A(C   4,C   5,H  14)          111.68 -0.000090    0.02    111.70   
    49. A(H  14,C   5,H  15)          108.26  0.000013    0.00    108.26   
    50. A(C   4,C   5,H  13)          111.27  0.000062   -0.01    111.26   
    51. A(H  17,N   6,H  18)          107.66 -0.000009   -0.00    107.66   
    52. A(H  16,N   6,H  18)          107.81  0.000029   -0.00    107.80   
    53. A(C   4,N   6,H  18)          110.76 -0.000052    0.01    110.77   
    54. A(H  16,N   6,H  17)          107.83 -0.000043    0.01    107.84   
    55. A(C   4,N   6,H  17)          111.81  0.000091   -0.02    111.79   
    56. A(C   4,N   6,H  16)          110.81 -0.000017    0.00    110.82   
    57. D(C   4,C   1,C   0,H   9)     43.85  0.000014    0.00     43.85   
    58. D(C   2,C   1,C   0,H   8)     91.86 -0.000027    0.03     91.89   
    59. D(C   4,C   1,C   0,H   7)    -77.62  0.000012    0.00    -77.62   
    60. D(H  10,C   1,C   0,H   8)    -51.48 -0.000003    0.01    -51.48   
    61. D(C   2,C   1,C   0,H   9)    -27.59 -0.000018    0.02    -27.57   
    62. D(C   2,C   1,C   0,H   7)   -149.06 -0.000020    0.02   -149.04   
    63. D(C   4,C   1,C   0,H   8)    163.30  0.000005    0.01    163.31   
    64. D(H  10,C   1,C   0,H   9)   -170.93  0.000007    0.00   -170.93   
    65. D(H  10,C   1,C   0,H   7)     67.59  0.000004    0.00     67.60   
    66. D(O   3,C   2,C   1,C   4)   -102.17  0.000027   -0.03   -102.20   
    67. D(C   4,C   2,C   1,C   0)    110.00  0.000043   -0.05    109.95   
    68. D(O   3,C   2,C   1,H  10)    151.44  0.000014   -0.04    151.40   
    69. D(O   3,C   2,C   1,C   0)      7.83  0.000071   -0.07      7.75   
    70. D(H  11,C   2,C   1,C   0)   -142.06  0.000090   -0.08   -142.14   
    71. D(C   4,C   2,C   1,H  10)   -106.39 -0.000013   -0.02   -106.41   
    72. D(H  11,C   2,C   1,H  10)      1.55  0.000033   -0.05      1.50   
    73. D(H  11,C   2,C   1,C   4)    107.94  0.000046   -0.03    107.91   
    74. D(H  12,O   3,C   2,H  11)     67.49  0.000024   -0.05     67.43   
    75. D(H  12,O   3,C   2,C   1)    -82.68  0.000021   -0.06    -82.73   
    76. D(H  12,O   3,C   2,C   4)   -151.21  0.000043   -0.07   -151.28   
    77. D(C   1,C   4,C   2,H  11)   -106.21 -0.000008   -0.01   -106.22   
    78. D(C   1,C   4,C   2,O   3)    113.31  0.000015   -0.01    113.29   
    79. D(N   6,C   4,C   1,H  10)     -2.18  0.000011   -0.01     -2.19   
    80. D(C   5,C   4,C   1,H  10)   -145.45  0.000009    0.01   -145.44   
    81. D(C   5,C   4,C   1,C   2)    111.13 -0.000050    0.04    111.17   
    82. D(N   6,C   4,C   1,C   0)    142.74 -0.000020   -0.01    142.73   
    83. D(C   5,C   4,C   1,C   0)     -0.53 -0.000022    0.01     -0.52   
    84. D(C   2,C   4,C   1,H  10)    103.42  0.000059   -0.03    103.39   
    85. D(C   2,C   4,C   1,C   0)   -111.67  0.000028   -0.03   -111.69   
    86. D(C   5,C   4,C   2,C   1)   -113.91 -0.000032    0.03   -113.87   
    87. D(N   6,C   4,C   1,C   2)   -105.60 -0.000048    0.02   -105.58   
    88. D(N   6,C   4,C   2,H  11)      0.08 -0.000017    0.00      0.08   
    89. D(N   6,C   4,C   2,O   3)   -140.40  0.000007   -0.00   -140.40   
    90. D(N   6,C   4,C   2,C   1)    106.30 -0.000008    0.01    106.31   
    91. D(C   5,C   4,C   2,H  11)    139.88 -0.000041    0.02    139.91   
    92. D(C   5,C   4,C   2,O   3)     -0.60 -0.000017    0.02     -0.58   
    93. D(H  15,C   5,C   4,N   6)    173.70  0.000027   -0.08    173.62   
    94. D(H  15,C   5,C   4,C   2)     32.54  0.000022   -0.10     32.44   
    95. D(H  15,C   5,C   4,C   1)    -41.68  0.000042   -0.10    -41.78   
    96. D(H  14,C   5,C   4,N   6)    -66.30  0.000011   -0.07    -66.37   
    97. D(H  14,C   5,C   4,C   2)    152.54  0.000007   -0.09    152.45   
    98. D(H  14,C   5,C   4,C   1)     78.32  0.000026   -0.10     78.23   
    99. D(H  13,C   5,C   4,N   6)     55.88  0.000019   -0.08     55.80   
   100. D(H  13,C   5,C   4,C   2)    -85.29  0.000014   -0.09    -85.38   
   101. D(H  13,C   5,C   4,C   1)   -159.50  0.000034   -0.10   -159.60   
   102. D(H  18,N   6,C   4,C   5)     61.81  0.000005   -0.01     61.80   
   103. D(H  18,N   6,C   4,C   2)   -153.95 -0.000020    0.02   -153.93   
   104. D(H  18,N   6,C   4,C   1)    -86.15 -0.000013    0.02    -86.13   
   105. D(H  17,N   6,C   4,C   5)   -178.12  0.000019   -0.01   -178.13   
   106. D(H  17,N   6,C   4,C   2)    -33.87 -0.000006    0.01    -33.86   
   107. D(H  17,N   6,C   4,C   1)     33.93  0.000001    0.01     33.94   
   108. D(H  16,N   6,C   4,C   5)    -57.79  0.000014   -0.01    -57.80   
   109. D(H  16,N   6,C   4,C   2)     86.45 -0.000011    0.02     86.47   
   110. D(H  16,N   6,C   4,C   1)    154.25 -0.000004    0.02    154.27   
    ----------------------------------------------------------------------------

         *************************************************************
         *                GEOMETRY OPTIMIZATION CYCLE   2            *
         *************************************************************
---------------------------------
CARTESIAN COORDINATES (ANGSTROEM)
---------------------------------
  C     -2.058024    0.549994   -0.242605
  C     -0.591605    0.850557   -0.368315
  C      0.383496    0.632943    0.770141
  O     -0.000031    0.000739    1.927214
  C      0.431327   -0.250590   -0.435877
  C      0.099592   -1.707854   -0.374806
  N      1.582577    0.000094   -1.355432
  H     -2.484023    0.241764   -1.198999
  H     -2.590215    1.445126    0.083744
  H     -2.249354   -0.234980    0.488588
  H     -0.365417    1.729993   -0.968801
  H      1.174999    1.376550    0.881371
  H     -0.433872    0.627888    2.515272
  H      0.971105   -2.301137   -0.082970
  H     -0.279785   -2.076552   -1.331795
  H     -0.662353   -1.878057    0.382120
  H      2.407476   -0.529606   -1.058697
  H      1.838462    0.988842   -1.382045
  H      1.353113   -0.287189   -2.311082

----------------------------
CARTESIAN COORDINATES (A.U.)
----------------------------
  NO LB      ZA    FRAG    MASS        X           Y           Z
   0 C     6.0000    0    12.011         -3.889101392231917          1.039338577190960         -0.458457756505095
   1 C     6.0000    0    12.011         -1.117971435135232          1.607318903595077         -0.696014740593275
   2 C     6.0000    0    12.011          0.724701777355218          1.196088114125826          1.455354753213843
   3 O     8.0000    0    15.999         -0.000058538729268          0.001397061226050          3.641907052698261
   4 C     6.0000    0    12.011          0.815089550483739         -0.473547342097808         -0.823687758415142
   5 C     6.0000    0    12.011          0.188200846173166         -3.227376147012632         -0.708280187856050
   6 N     7.0000    0    14.007          2.990636726365683          0.000178545301850         -2.561394978817883
   7 H     1.0000    0     1.008         -4.694122837628710          0.456867539297263         -2.265779600219518
   8 H     1.0000    0     1.008         -4.894796857422279          2.730892195381204          0.158254150015814
   9 H     1.0000    0     1.008         -4.250663423889153         -0.444048396446098          0.923298089340095
  10 H     1.0000    0     1.008         -0.690538116289474          3.269212498727253         -1.830768775554986
  11 H     1.0000    0     1.008          2.220426842749223          2.601302382278218          1.665550143025591
  12 H     1.0000    0     1.008         -0.819899264630799          1.186536396668596          4.753174637391494
  13 H     1.0000    0     1.008          1.835122685944140         -4.348518843595910         -0.156791314516197
  14 H     1.0000    0     1.008         -0.528716164395362         -3.924114350065488         -2.516728015282927
  15 H     1.0000    0     1.008         -1.251665992738135         -3.549013417819122          0.722101491727769
  16 H     1.0000    0     1.008          4.549469707472295         -1.000810529632886         -2.000646974748059
  17 H     1.0000    0     1.008          3.474188922720688          1.868640351351044         -2.611685854550204
  18 H     1.0000    0     1.008          2.557013100300200         -0.542708686807752         -4.367312690340709

--------------------------------
INTERNAL COORDINATES (ANGSTROEM)
--------------------------------
 C      0   0   0   0.000000     0.000     0.000
 C      1   0   0   1.502173     0.000     0.000
 C      2   1   0   1.514681   122.466     0.000
 O      3   2   1   1.373169   121.310     7.753
 C      3   2   1   1.495793    59.963   109.949
 C      5   3   2   1.495792   122.375   246.126
 N      5   3   2   1.494591   114.937   106.305
 H      1   2   3   1.091407   111.359   210.957
 H      1   2   3   1.091326   109.692    91.885
 H      1   2   3   1.089696   111.820   332.430
 H      2   1   3   1.088647   114.244   216.638
 H      3   2   1   1.091697   116.453   217.857
 H      4   3   2   0.962988   109.911   277.265
 H      6   5   3   1.093933   111.258   274.621
 H      6   5   3   1.093478   111.698   152.450
 H      6   5   3   1.087412   109.652    32.439
 H      7   5   3   1.024252   110.816    86.470
 H      7   5   3   1.021669   111.794   326.141
 H      7   5   3   1.023940   110.766   206.074

---------------------------
INTERNAL COORDINATES (A.U.)
---------------------------
 C      0   0   0   0.000000     0.000     0.000
 C      1   0   0   2.838696     0.000     0.000
 C      2   1   0   2.862332   122.466     0.000
 O      3   2   1   2.594913   121.310     7.753
 C      3   2   1   2.826639    59.963   109.949
 C      5   3   2   2.826638   122.375   246.126
 N      5   3   2   2.824367   114.937   106.305
 H      1   2   3   2.062461   111.359   210.957
 H      1   2   3   2.062307   109.692    91.885
 H      1   2   3   2.059226   111.820   332.430
 H      2   1   3   2.057245   114.244   216.638
 H      3   2   1   2.063008   116.453   217.857
 H      4   3   2   1.819783   109.911   277.265
 H      6   5   3   2.067233   111.258   274.621
 H      6   5   3   2.066373   111.698   152.450
 H      6   5   3   2.054911   109.652    32.439
 H      7   5   3   1.935556   110.816    86.470
 H      7   5   3   1.930674   111.794   326.141
 H      7   5   3   1.934966   110.766   206.074



           ************************************************************
           *        Program running with 8 parallel MPI-processes     *
           *              working on a common directory               *
           ************************************************************
           ************************************************************
           *              Shut down parallel processing               *
           ************************************************************


           ************************************************************
           *        Program running with 8 parallel MPI-processes     *
           *              working on a common directory               *
           ************************************************************

Diagonalization of the overlap matrix:
Smallest eigenvalue                        ... 1.050e-04
Time for diagonalization                   ...    0.021 sec
Threshold for overlap eigenvalues          ... 1.000e-08
Number of eigenvalues below threshold      ... 0
Time for construction of square roots      ...    0.010 sec
Total time needed                          ...    0.031 sec

-------------------
DFT GRID GENERATION
-------------------

General Integration Accuracy     IntAcc      ...  4.340
Radial Grid Type                 RadialGrid  ... Gauss-Chebyshev
Angular Grid (max. acc.)         AngularGrid ... Lebedev-194
Angular grid pruning method      GridPruning ... 3 (G Style)
Weight generation scheme         WeightScheme... Becke
Basis function cutoff            BFCut       ...    1.0000e-11
Integration weight cutoff        WCut        ...    1.0000e-14
Grids for H and He will be reduced by one unit

# of grid points (after initial pruning)     ...  41422 (   0.0 sec)
# of grid points (after weights+screening)   ...  37590 (   0.0 sec)
nearest neighbour list constructed           ...    0.0 sec
Grid point re-assignment to atoms done       ...    0.0 sec
Grid point division into batches done        ...    0.1 sec
Reduced shell lists constructed in    0.1 sec

Total number of grid points                  ...    37590
Total number of batches                      ...      598
Average number of points per batch           ...       62
Average number of grid points per atom       ...     1978
Average number of shells per batch           ...   102.41 (81.93%)
Average number of basis functions per batch  ...   248.80 (86.09%)
Average number of large shells per batch     ...    83.80 (81.83%)
Average number of large basis fcns per batch ...   201.38 (80.94%)
Maximum spatial batch extension              ...   2.50,  2.55,  2.57 au
Average spatial batch extension              ...   0.16,  0.16,  0.16 au

Time for grid setup =    0.198 sec

--------------
SCF ITERATIONS
--------------
ITER       Energy         Delta-E        Max-DP      RMS-DP      [F,P]     Damp
               ***  Starting incremental Fock matrix formation  ***
                      *** Initiating the SOSCF procedure ***
                      *** Re-Reading the Fockian *** 
                      *** Removing any level shift *** 
ITER      Energy       Delta-E        Grad      Rot      Max-DP    RMS-DP
  0   -327.20185525 -327.2018552470  0.000112  0.000112  0.000328  0.000007
               *** Restarting incremental Fock matrix formation ***
  1   -327.20185630  -0.0000010498  0.000025  0.000061  0.000116  0.000003
  2   -327.20185639  -0.0000000959  0.000013  0.000021  0.000139  0.000001
  3   -327.20185639   0.0000000012  0.000013  0.000011  0.000089  0.000001
                  ***Gradient check signals convergence***
              ***Rediagonalizing the Fockian in SOSCF/NRSCF***

               *****************************************************
               *                     SUCCESS                       *
               *           SCF CONVERGED AFTER   4 CYCLES          *
               *****************************************************

Setting up the final grid:

General Integration Accuracy     IntAcc      ...  5.010
Radial Grid Type                 RadialGrid  ... Gauss-Chebyshev
Angular Grid (max. acc.)         AngularGrid ... Lebedev-434
Angular grid pruning method      GridPruning ... 3 (G Style)
Weight generation scheme         WeightScheme... Becke
Basis function cutoff            BFCut       ...    1.0000e-11
Integration weight cutoff        WCut        ...    1.0000e-14
Grids for H and He will be reduced by one unit

# of grid points (after initial pruning)     ... 155226 (   0.0 sec)
# of grid points (after weights+screening)   ... 139226 (   0.1 sec)
nearest neighbour list constructed           ...    0.0 sec
Grid point re-assignment to atoms done       ...    0.0 sec
Grid point division into batches done        ...    0.8 sec
Reduced shell lists constructed in    1.1 sec

Total number of grid points                  ...   139226
Total number of batches                      ...     2186
Average number of points per batch           ...       63
Average number of grid points per atom       ...     7328
Average number of shells per batch           ...   100.40 (80.32%)
Average number of basis functions per batch  ...   243.76 (84.34%)
Average number of large shells per batch     ...    81.07 (80.75%)
Average number of large basis fcns per batch ...   194.33 (79.72%)
Maximum spatial batch extension              ...   2.87,  3.58,  2.92 au
Average spatial batch extension              ...   0.10,  0.11,  0.11 au

Final grid set up in    1.3 sec
Final integration                            ... done (   0.8 sec)
Change in XC energy                          ...     0.000422639
Integrated number of electrons               ...    56.000059934
Previous integrated no of electrons          ...    56.000824048
Total Energy       :         -327.20143376 Eh           -8903.60366 eV
  Last Energy change         ...   -9.9972e-09  Tolerance :   1.0000e-08
  Last MAX-Density change    ...    1.3188e-05  Tolerance :   1.0000e-07
             **** THE GBW FILE WAS UPDATED (4759_+.gbw) ****
             **** DENSITY FILE WAS UPDATED (4759_+.scfp.tmp) ****
             **** ENERGY FILE WAS UPDATED (4759_+.en.tmp) ****
Total SCF time: 0 days 0 hours 0 min 28 sec 
           ************************************************************
           *              Shut down parallel processing               *
           ************************************************************

-------------------------   --------------------
FINAL SINGLE POINT ENERGY      -327.201433762511
-------------------------   --------------------



           ************************************************************
           *        Program running with 8 parallel MPI-processes     *
           *              working on a common directory               *
           ************************************************************
------------------------------------------------------------------------------
                         ORCA SCF GRADIENT CALCULATION
------------------------------------------------------------------------------

Gradient of the Kohn-Sham DFT energy:
Kohn-Sham wavefunction type      ... RKS
Hartree-Fock exchange scaling    ...    0.250
Number of operators              ...    1
Number of atoms                  ...   19
Basis set dimensions             ...  289
Integral neglect threshold       ... 2.5e-11
Integral primitive cutoff        ... 2.5e-12

Nuclear repulsion gradient       ... done
One Electron Gradient            ... done
Pre-screening matrix             ... done
Starting the two electron gradient:
Two electron gradient done
Exchange-correlation gradient    ... done

------------------
CARTESIAN GRADIENT
------------------

   1   C   :   -0.000042120    0.000026683   -0.000009873
   2   C   :    0.000141870   -0.000101630    0.000116102
   3   C   :    0.000042890    0.000055168   -0.000111221
   4   O   :    0.000036829    0.000042602    0.000007818
   5   C   :   -0.000108113   -0.000007416   -0.000169081
   6   C   :    0.000087585    0.000039235    0.000089491
   7   N   :   -0.000068295    0.000011344    0.000005351
   8   H   :   -0.000000642   -0.000006892    0.000006136
   9   H   :    0.000019824    0.000010572    0.000024014
  10   H   :   -0.000018492   -0.000005511   -0.000008209
  11   H   :   -0.000046032   -0.000009425   -0.000025385
  12   H   :   -0.000005762   -0.000005890    0.000102505
  13   H   :   -0.000038680   -0.000046209    0.000007624
  14   H   :   -0.000021501   -0.000008288    0.000034472
  15   H   :    0.000019057    0.000011826   -0.000029615
  16   H   :   -0.000019410   -0.000017105   -0.000035867
  17   H   :    0.000010513    0.000010074    0.000011942
  18   H   :    0.000031176    0.000000831   -0.000019256
  19   H   :   -0.000020696    0.000000031    0.000003052

Norm of the cartesian gradient     ...    0.000394070
RMS gradient                       ...    0.000052196
MAX gradient                       ...    0.000169081

-------
TIMINGS
-------

Total SCF gradient time            ...       34.486 sec

One electron gradient       ....       0.237 sec  (  0.7%)
Prescreening matrices       ....       1.245 sec  (  3.6%)
Two electron gradient       ....      28.910 sec  ( 83.8%)
XC gradient                 ....       3.339 sec  (  9.7%)
           ************************************************************
           *              Shut down parallel processing               *
           ************************************************************
------------------------------------------------------------------------------
                         ORCA GEOMETRY RELAXATION STEP
------------------------------------------------------------------------------

Reading the OPT-File                    .... done
Getting information on internals        .... done
Copying old internal coords+grads       .... done
Making the new internal coordinates     .... (new redundants).... done
Validating the new internal coordinates .... (new redundants).... done
Calculating the B-matrix                .... done
Calculating the G,G- and P matrices     .... done
Transforming gradient to internals      .... done
Projecting the internal gradient        .... done
Number of atoms                         ....  19
Number of internal coordinates          .... 110
Current Energy                          ....  -327.201433763 Eh
Current gradient norm                   ....     0.000394070 Eh/bohr
Maximum allowed component of the step   ....  0.300
Current trust radius                    ....  0.300
Updating the Hessian (BFGS)             .... done
Forming the augmented Hessian           .... done
Diagonalizing the augmented Hessian     .... done
Last element of RFO vector              ....  0.999908242
Lowest eigenvalues of augmented Hessian:
 -0.000001778  0.008045259  0.013315366  0.013575351  0.026345775
Length of the computed step             ....  0.013547753
The final length of the internal step   ....  0.013547753
Converting the step to cartesian space:
 Initial RMS(Int)=    0.0012917276
Transforming coordinates:
 Iter   0:  RMS(Cart)=    0.0021638421 RMS(Int)=    0.0012916582
 Iter   1:  RMS(Cart)=    0.0000031035 RMS(Int)=    0.0000020600
 Iter   2:  RMS(Cart)=    0.0000000100 RMS(Int)=    0.0000000068
done
Storing new coordinates                 .... done

                                .--------------------.
          ----------------------|Geometry convergence|---------------------
          Item                value                 Tolerance   Converged
          -----------------------------------------------------------------
          Energy change      -0.00000121            0.00000100      NO
          RMS gradient        0.00002211            0.00003000      YES
          MAX gradient        0.00007332            0.00010000      YES
          RMS step            0.00129173            0.00060000      NO
          MAX step            0.00436661            0.00100000      NO
          ....................................................
          Max(Bonds)      0.0002      Max(Angles)    0.06
          Max(Dihed)        0.25      Max(Improp)    0.00
          -----------------------------------------------------------------

The optimization has not yet converged - more geometry cycles are needed


    ---------------------------------------------------------------------------
                         Redundant Internal Coordinates
                            (Angstroem and degrees)

        Definition                    Value    dE/dq     Step     New-Value
    ----------------------------------------------------------------------------
     1. B(C   1,C   0)                1.5022  0.000030 -0.0001    1.5020   
     2. B(C   2,C   1)                1.5147 -0.000030  0.0002    1.5149   
     3. B(O   3,C   2)                1.3732  0.000012 -0.0001    1.3731   
     4. B(C   4,C   2)                1.4958  0.000011 -0.0001    1.4957   
     5. B(C   4,C   1)                1.5045 -0.000039  0.0002    1.5047   
     6. B(C   5,C   4)                1.4958 -0.000033  0.0002    1.4960   
     7. B(N   6,C   4)                1.4946 -0.000036  0.0002    1.4948   
     8. B(H   7,C   0)                1.0914 -0.000001 -0.0000    1.0914   
     9. B(H   8,C   0)                1.0913  0.000007 -0.0001    1.0912   
    10. B(H   9,C   0)                1.0897 -0.000002  0.0001    1.0898   
    11. B(H  10,C   1)                1.0886 -0.000002  0.0000    1.0887   
    12. B(H  11,C   2)                1.0917  0.000002 -0.0001    1.0916   
    13. B(H  12,O   3)                0.9630 -0.000005 -0.0000    0.9630   
    14. B(H  13,C   5)                1.0939 -0.000004  0.0000    1.0940   
    15. B(H  14,C   5)                1.0935  0.000014 -0.0001    1.0934   
    16. B(H  15,C   5)                1.0874 -0.000006  0.0001    1.0875   
    17. B(H  16,N   6)                1.0243  0.000010  0.0001    1.0244   
    18. B(H  17,N   6)                1.0217  0.000006  0.0000    1.0217   
    19. B(H  18,N   6)                1.0239  0.000001 -0.0000    1.0239   
    20. A(H   7,C   0,H   9)          108.42 -0.000016    0.01    108.43   
    21. A(C   1,C   0,H   7)          111.36  0.000003   -0.00    111.36   
    22. A(H   7,C   0,H   8)          107.66  0.000020   -0.01    107.65   
    23. A(H   8,C   0,H   9)          107.73  0.000001    0.00    107.74   
    24. A(C   1,C   0,H   8)          109.69 -0.000043    0.02    109.71   
    25. A(C   1,C   0,H   9)          111.82  0.000035   -0.02    111.80   
    26. A(C   2,C   1,H  10)          113.38  0.000024   -0.02    113.36   
    27. A(C   4,C   1,H  10)          115.16  0.000018    0.01    115.17   
    28. A(C   0,C   1,C   4)          121.40  0.000008   -0.05    121.36   
    29. A(C   0,C   1,C   2)          122.47 -0.000004    0.01    122.48   
    30. A(C   2,C   1,C   4)           59.40  0.000018   -0.01     59.38   
    31. A(C   0,C   1,H  10)          114.24 -0.000035    0.04    114.28   
    32. A(O   3,C   2,C   4)          114.61 -0.000013    0.03    114.64   
    33. A(C   4,C   2,H  11)          117.47  0.000046   -0.06    117.42   
    34. A(C   1,C   2,H  11)          116.45  0.000040   -0.02    116.43   
    35. A(C   1,C   2,C   4)           59.96 -0.000012    0.01     59.97   
    36. A(C   1,C   2,O   3)          121.31 -0.000009    0.01    121.32   
    37. A(O   3,C   2,H  11)          115.48 -0.000034    0.02    115.51   
    38. A(C   2,O   3,H  12)          109.91  0.000073   -0.03    109.88   
    39. A(C   1,C   4,C   2)           60.64 -0.000006    0.01     60.65   
    40. A(C   5,C   4,N   6)          111.06 -0.000015    0.01    111.07   
    41. A(C   2,C   4,N   6)          114.94  0.000021   -0.02    114.92   
    42. A(C   1,C   4,N   6)          115.38  0.000016   -0.00    115.37   
    43. A(C   1,C   4,C   5)          124.09  0.000004   -0.03    124.06   
    44. A(C   2,C   4,C   5)          122.37 -0.000013    0.04    122.41   
    45. A(H  13,C   5,H  15)          106.72 -0.000023    0.01    106.72   
    46. A(C   4,C   5,H  15)          109.65  0.000031   -0.01    109.64   
    47. A(H  13,C   5,H  14)          109.09  0.000008   -0.01    109.08   
    48. A(C   4,C   5,H  14)          111.70 -0.000043    0.03    111.72   
    49. A(H  14,C   5,H  15)          108.26 -0.000004    0.01    108.27   
    50. A(C   4,C   5,H  13)          111.26  0.000032   -0.02    111.24   
    51. A(H  17,N   6,H  18)          107.66 -0.000007   -0.00    107.66   
    52. A(H  16,N   6,H  18)          107.80  0.000018   -0.01    107.80   
    53. A(C   4,N   6,H  18)          110.77 -0.000033    0.02    110.78   
    54. A(H  16,N   6,H  17)          107.84 -0.000023    0.01    107.85   
    55. A(C   4,N   6,H  17)          111.79  0.000056   -0.03    111.76   
    56. A(C   4,N   6,H  16)          110.82 -0.000011    0.01    110.82   
    57. D(C   4,C   1,C   0,H   9)     43.85  0.000011    0.02     43.88   
    58. D(C   2,C   1,C   0,H   8)     91.89 -0.000020    0.07     91.95   
    59. D(C   4,C   1,C   0,H   7)    -77.62  0.000005    0.03    -77.59   
    60. D(H  10,C   1,C   0,H   8)    -51.48 -0.000003    0.03    -51.44   
    61. D(C   2,C   1,C   0,H   9)    -27.57 -0.000014    0.06    -27.51   
    62. D(C   2,C   1,C   0,H   7)   -149.04 -0.000020    0.06   -148.98   
    63. D(C   4,C   1,C   0,H   8)    163.31  0.000006    0.03    163.34   
    64. D(H  10,C   1,C   0,H   9)   -170.93  0.000002    0.03   -170.91   
    65. D(H  10,C   1,C   0,H   7)     67.60 -0.000003    0.03     67.63   
    66. D(O   3,C   2,C   1,C   4)   -102.20  0.000018   -0.04   -102.24   
    67. D(C   4,C   2,C   1,C   0)    109.95  0.000021   -0.07    109.88   
    68. D(O   3,C   2,C   1,H  10)    151.40  0.000003   -0.06    151.34   
    69. D(O   3,C   2,C   1,C   0)      7.75  0.000039   -0.11      7.64   
    70. D(H  11,C   2,C   1,C   0)   -142.14  0.000054   -0.12   -142.27   
    71. D(C   4,C   2,C   1,H  10)   -106.41 -0.000015   -0.02   -106.43   
    72. D(H  11,C   2,C   1,H  10)      1.50  0.000018   -0.07      1.43   
    73. D(H  11,C   2,C   1,C   4)    107.91  0.000033   -0.05    107.85   
    74. D(H  12,O   3,C   2,H  11)     67.43  0.000021   -0.12     67.31   
    75. D(H  12,O   3,C   2,C   1)    -82.73  0.000015   -0.12    -82.86   
    76. D(H  12,O   3,C   2,C   4)   -151.28  0.000038   -0.15   -151.42   
    77. D(C   1,C   4,C   2,H  11)   -106.22 -0.000023    0.00   -106.22   
    78. D(C   1,C   4,C   2,O   3)    113.29 -0.000008   -0.01    113.29   
    79. D(N   6,C   4,C   1,H  10)     -2.19  0.000010   -0.02     -2.21   
    80. D(C   5,C   4,C   1,H  10)   -145.44  0.000006    0.02   -145.42   
    81. D(C   5,C   4,C   1,C   2)    111.17 -0.000020    0.06    111.23   
    82. D(N   6,C   4,C   1,C   0)    142.73 -0.000016   -0.01    142.72   
    83. D(C   5,C   4,C   1,C   0)     -0.52 -0.000020    0.03     -0.49   
    84. D(C   2,C   4,C   1,H  10)    103.39  0.000027   -0.04    103.35   
    85. D(C   2,C   4,C   1,C   0)   -111.69  0.000001   -0.03   -111.72   
    86. D(C   5,C   4,C   2,C   1)   -113.87 -0.000006    0.05   -113.83   
    87. D(N   6,C   4,C   1,C   2)   -105.58 -0.000016    0.02   -105.56   
    88. D(N   6,C   4,C   2,H  11)      0.08 -0.000016    0.01      0.09   
    89. D(N   6,C   4,C   2,O   3)   -140.40 -0.000001    0.00   -140.40   
    90. D(N   6,C   4,C   2,C   1)    106.31  0.000007    0.01    106.31   
    91. D(C   5,C   4,C   2,H  11)    139.91 -0.000029    0.05    139.95   
    92. D(C   5,C   4,C   2,O   3)     -0.58 -0.000014    0.04     -0.54   
    93. D(H  15,C   5,C   4,N   6)    173.62  0.000025   -0.21    173.41   
    94. D(H  15,C   5,C   4,C   2)     32.44  0.000025   -0.24     32.20   
    95. D(H  15,C   5,C   4,C   1)    -41.78  0.000038   -0.25    -42.03   
    96. D(H  14,C   5,C   4,N   6)    -66.37  0.000013   -0.19    -66.56   
    97. D(H  14,C   5,C   4,C   2)    152.45  0.000013   -0.22    152.23   
    98. D(H  14,C   5,C   4,C   1)     78.23  0.000026   -0.23     77.99   
    99. D(H  13,C   5,C   4,N   6)     55.80  0.000015   -0.20     55.60   
   100. D(H  13,C   5,C   4,C   2)    -85.38  0.000015   -0.23    -85.60   
   101. D(H  13,C   5,C   4,C   1)   -159.60  0.000028   -0.24   -159.84   
   102. D(H  18,N   6,C   4,C   5)     61.80  0.000001   -0.01     61.79   
   103. D(H  18,N   6,C   4,C   2)   -153.93 -0.000012    0.04   -153.89   
   104. D(H  18,N   6,C   4,C   1)    -86.13 -0.000007    0.04    -86.09   
   105. D(H  17,N   6,C   4,C   5)   -178.13  0.000008   -0.02   -178.15   
   106. D(H  17,N   6,C   4,C   2)    -33.86 -0.000005    0.03    -33.83   
   107. D(H  17,N   6,C   4,C   1)     33.94 -0.000001    0.03     33.97   
   108. D(H  16,N   6,C   4,C   5)    -57.80  0.000008   -0.02    -57.82   
   109. D(H  16,N   6,C   4,C   2)     86.47 -0.000005    0.03     86.50   
   110. D(H  16,N   6,C   4,C   1)    154.27 -0.000001    0.03    154.30   
    ----------------------------------------------------------------------------

         *************************************************************
         *                GEOMETRY OPTIMIZATION CYCLE   3            *
         *************************************************************
---------------------------------
CARTESIAN COORDINATES (ANGSTROEM)
---------------------------------
  C     -2.057890    0.549118   -0.243251
  C     -0.591768    0.850778   -0.368215
  C      0.383436    0.633049    0.770372
  O     -0.000251    0.001708    1.927800
  C      0.431251   -0.250561   -0.435420
  C      0.098525   -1.707816   -0.375325
  N      1.582959    0.000186   -1.354657
  H     -2.483076    0.240264   -1.199801
  H     -2.591242    1.443627    0.082427
  H     -2.248699   -0.235967    0.488151
  H     -0.365299    1.730440   -0.968294
  H      1.175372    1.376228    0.880624
  H     -0.431815    0.630272    2.516018
  H      0.970729   -2.301895   -0.087031
  H     -0.284075   -2.075305   -1.331369
  H     -0.661104   -1.878271    0.384019
  H      2.407760   -0.529954   -1.058026
  H      1.838790    0.988978   -1.380421
  H      1.353863   -0.286354   -2.310576

----------------------------
CARTESIAN COORDINATES (A.U.)
----------------------------
  NO LB      ZA    FRAG    MASS        X           Y           Z
   0 C     6.0000    0    12.011         -3.888848504113819          1.037682047147275         -0.459677449146520
   1 C     6.0000    0    12.011         -1.118278763419968          1.607737318517174         -0.695825459742192
   2 C     6.0000    0    12.011          0.724588875298610          1.196288708083367          1.455792284963417
   3 O     8.0000    0    15.999         -0.000474316746410          0.003228420732174          3.643013331104385
   4 C     6.0000    0    12.011          0.814946338551108         -0.473491820332652         -0.822824043045996
   5 C     6.0000    0    12.011          0.186186084068629         -3.227305093100281         -0.709261511182552
   6 N     7.0000    0    14.007          2.991359358022114          0.000351865017486         -2.559931593852929
   7 H     1.0000    0     1.008         -4.692332730233503          0.454033784608423         -2.267294875189553
   8 H     1.0000    0     1.008         -4.896736988930502          2.728058763241575          0.155764001975818
   9 H     1.0000    0     1.008         -4.249425652000346         -0.445913207358590          0.922472381174979
  10 H     1.0000    0     1.008         -0.690314391560706          3.270058003863803         -1.829809590712781
  11 H     1.0000    0     1.008          2.221130701878851          2.600693408274047          1.664138364524026
  12 H     1.0000    0     1.008         -0.816011832455144          1.191041245492524          4.754585482185308
  13 H     1.0000    0     1.008          1.834411364250776         -4.349950940852361         -0.164464072110893
  14 H     1.0000    0     1.008         -0.536824665688016         -3.921758981119665         -2.515923029638079
  15 H     1.0000    0     1.008         -1.249305110658358         -3.549417772657644          0.725691043401082
  16 H     1.0000    0     1.008          4.550006540854912         -1.001467807427457         -1.999380266131467
  17 H     1.0000    0     1.008          3.474809901311708          1.868897063570957         -2.608617068124353
  18 H     1.0000    0     1.008          2.558429928044087         -0.541130154034506         -4.366356260438875

--------------------------------
INTERNAL COORDINATES (ANGSTROEM)
--------------------------------
 C      0   0   0   0.000000     0.000     0.000
 C      1   0   0   1.502042     0.000     0.000
 C      2   1   0   1.514863   122.477     0.000
 O      3   2   1   1.373115   121.315     7.644
 C      3   2   1   1.495656    59.970   109.879
 C      5   3   2   1.495965   122.412   246.173
 N      5   3   2   1.494759   114.918   106.312
 H      1   2   3   1.091403   111.357   211.020
 H      1   2   3   1.091181   109.712    91.951
 H      1   2   3   1.089824   111.802   332.487
 H      2   1   3   1.088663   114.279   216.607
 H      3   2   1   1.091619   116.429   217.733
 H      4   3   2   0.962985   109.876   277.144
 H      6   5   3   1.093975   111.239   274.396
 H      6   5   3   1.093367   111.723   152.230
 H      6   5   3   1.087518   109.639    32.204
 H      7   5   3   1.024370   110.824    86.501
 H      7   5   3   1.021676   111.765   326.169
 H      7   5   3   1.023900   110.781   206.113

---------------------------
INTERNAL COORDINATES (A.U.)
---------------------------
 C      0   0   0   0.000000     0.000     0.000
 C      1   0   0   2.838448     0.000     0.000
 C      2   1   0   2.862675   122.477     0.000
 O      3   2   1   2.594811   121.315     7.644
 C      3   2   1   2.826380    59.970   109.879
 C      5   3   2   2.826964   122.412   246.173
 N      5   3   2   2.824685   114.918   106.312
 H      1   2   3   2.062453   111.357   211.020
 H      1   2   3   2.062033   109.712    91.951
 H      1   2   3   2.059468   111.802   332.487
 H      2   1   3   2.057276   114.279   216.607
 H      3   2   1   2.062862   116.429   217.733
 H      4   3   2   1.819778   109.876   277.144
 H      6   5   3   2.067313   111.239   274.396
 H      6   5   3   2.066165   111.723   152.230
 H      6   5   3   2.055111   109.639    32.204
 H      7   5   3   1.935779   110.824    86.501
 H      7   5   3   1.930688   111.765   326.169
 H      7   5   3   1.934890   110.781   206.113



           ************************************************************
           *        Program running with 8 parallel MPI-processes     *
           *              working on a common directory               *
           ************************************************************
           ************************************************************
           *              Shut down parallel processing               *
           ************************************************************


           ************************************************************
           *        Program running with 8 parallel MPI-processes     *
           *              working on a common directory               *
           ************************************************************

Diagonalization of the overlap matrix:
Smallest eigenvalue                        ... 1.050e-04
Time for diagonalization                   ...    0.490 sec
Threshold for overlap eigenvalues          ... 1.000e-08
Number of eigenvalues below threshold      ... 0
Time for construction of square roots      ...    0.060 sec
Total time needed                          ...    0.550 sec

-------------------
DFT GRID GENERATION
-------------------

General Integration Accuracy     IntAcc      ...  4.340
Radial Grid Type                 RadialGrid  ... Gauss-Chebyshev
Angular Grid (max. acc.)         AngularGrid ... Lebedev-194
Angular grid pruning method      GridPruning ... 3 (G Style)
Weight generation scheme         WeightScheme... Becke
Basis function cutoff            BFCut       ...    1.0000e-11
Integration weight cutoff        WCut        ...    1.0000e-14
Grids for H and He will be reduced by one unit

# of grid points (after initial pruning)     ...  41422 (   0.0 sec)
# of grid points (after weights+screening)   ...  37593 (   0.3 sec)
nearest neighbour list constructed           ...    0.0 sec
Grid point re-assignment to atoms done       ...    0.0 sec
Grid point division into batches done        ...    0.1 sec
Reduced shell lists constructed in    0.1 sec

Total number of grid points                  ...    37593
Total number of batches                      ...      598
Average number of points per batch           ...       62
Average number of grid points per atom       ...     1979
Average number of shells per batch           ...   102.28 (81.82%)
Average number of basis functions per batch  ...   248.22 (85.89%)
Average number of large shells per batch     ...    83.67 (81.81%)
Average number of large basis fcns per batch ...   201.28 (81.09%)
Maximum spatial batch extension              ...   2.50,  2.55,  2.57 au
Average spatial batch extension              ...   0.16,  0.15,  0.15 au

Time for grid setup =    1.046 sec

--------------
SCF ITERATIONS
--------------
ITER       Energy         Delta-E        Max-DP      RMS-DP      [F,P]     Damp
               ***  Starting incremental Fock matrix formation  ***
                      *** Initiating the SOSCF procedure ***
                      *** Re-Reading the Fockian *** 
                      *** Removing any level shift *** 
ITER      Energy       Delta-E        Grad      Rot      Max-DP    RMS-DP
  0   -327.20185309 -327.2018530918  0.000271  0.000271  0.000735  0.000014
               *** Restarting incremental Fock matrix formation ***
  1   -327.20185709  -0.0000039988  0.000057  0.000116  0.000230  0.000005
  2   -327.20185748  -0.0000003848  0.000015  0.000033  0.000271  0.000002
  3   -327.20185747   0.0000000081  0.000023  0.000012  0.000169  0.000001
                  ***Gradient check signals convergence***
              ***Rediagonalizing the Fockian in SOSCF/NRSCF***

               *****************************************************
               *                     SUCCESS                       *
               *           SCF CONVERGED AFTER   4 CYCLES          *
               *****************************************************

Setting up the final grid:

General Integration Accuracy     IntAcc      ...  5.010
Radial Grid Type                 RadialGrid  ... Gauss-Chebyshev
Angular Grid (max. acc.)         AngularGrid ... Lebedev-434
Angular grid pruning method      GridPruning ... 3 (G Style)
Weight generation scheme         WeightScheme... Becke
Basis function cutoff            BFCut       ...    1.0000e-11
Integration weight cutoff        WCut        ...    1.0000e-14
Grids for H and He will be reduced by one unit

# of grid points (after initial pruning)     ... 155226 (   0.0 sec)
# of grid points (after weights+screening)   ... 139233 (   0.1 sec)
nearest neighbour list constructed           ...    0.0 sec
Grid point re-assignment to atoms done       ...    0.0 sec
Grid point division into batches done        ...    0.8 sec
Reduced shell lists constructed in    1.1 sec

Total number of grid points                  ...   139233
Total number of batches                      ...     2186
Average number of points per batch           ...       63
Average number of grid points per atom       ...     7328
Average number of shells per batch           ...   100.39 (80.31%)
Average number of basis functions per batch  ...   243.65 (84.31%)
Average number of large shells per batch     ...    81.03 (80.72%)
Average number of large basis fcns per batch ...   194.16 (79.69%)
Maximum spatial batch extension              ...   3.08,  3.58,  3.08 au
Average spatial batch extension              ...   0.10,  0.11,  0.11 au

Final grid set up in    1.3 sec
Final integration                            ... done (   0.8 sec)
Change in XC energy                          ...     0.000422671
Integrated number of electrons               ...    56.000061738
Previous integrated no of electrons          ...    56.000824124
Total Energy       :         -327.20143482 Eh           -8903.60369 eV
  Last Energy change         ...   -2.5317e-08  Tolerance :   1.0000e-08
  Last MAX-Density change    ...    1.2508e-05  Tolerance :   1.0000e-07
             **** THE GBW FILE WAS UPDATED (4759_+.gbw) ****
[...]
     18       0.038548   0.031292   0.004674   0.000076  -0.000058  -0.000002
     19       0.035053  -0.001713  -0.048634   0.000048   0.000102   0.000044
     20      -0.021959   0.038590  -0.005442  -0.000078  -0.000048   0.000170
     21       0.202696   0.001485   0.004810  -0.011488   0.234187   0.002706
     22      -0.213434  -0.000781  -0.003177  -0.009124   0.181311   0.003175
     23      -0.013357   0.000502  -0.002137  -0.027478   0.557653   0.008631
     24       0.178104   0.005053   0.008499  -0.011223   0.280064   0.007310
     25       0.008428   0.002991   0.003634   0.020878  -0.489234  -0.011573
     26       0.246621  -0.001961   0.003206   0.007330  -0.178279  -0.004783
     27      -0.205473  -0.005425   0.000406  -0.005558   0.076365  -0.002005
     28       0.029329  -0.003604  -0.000068  -0.022165   0.358418  -0.006617
     29      -0.020392  -0.003086  -0.000040   0.020943  -0.334591   0.005492
     30       0.191498   0.013506  -0.007564   0.001729   0.000621   0.032700
     31       0.009330  -0.002186   0.008423   0.003438   0.007179   0.126771
     32      -0.018065  -0.007686   0.000655  -0.003790  -0.005241  -0.082376
     33       0.058474  -0.009641  -0.000444   0.009760   0.007847  -0.709090
     34       0.067882  -0.005564   0.006076   0.007708   0.009126  -0.674059
     35      -0.299562   0.015453   0.002436   0.000877   0.000823  -0.104119
     36       0.035932  -0.003021   0.002661   0.000333   0.000088  -0.000100
     37       0.145907  -0.006798   0.008626   0.000208  -0.000465  -0.000587
     38      -0.160731   0.006064  -0.009431  -0.000237  -0.000849  -0.005049
     39       0.046906   0.025889   0.000727  -0.554848  -0.032256  -0.012839
     40       0.193199   0.020132   0.022826   0.367582   0.022475   0.009686
     41       0.245207  -0.020785   0.025348  -0.182903  -0.010947  -0.004026
     42      -0.167071  -0.022735  -0.022760   0.238087   0.011172  -0.000408
     43       0.271831  -0.023561   0.023339   0.206949   0.010083  -0.001578
     44      -0.031650   0.020479   0.006407   0.567352   0.027200  -0.001033
     45       0.032737  -0.034094   0.000103   0.217283   0.001383   0.003775
     46      -0.167336   0.013440  -0.034623   0.039050  -0.000687  -0.000059
     47      -0.001161  -0.031594  -0.008963  -0.218255  -0.001588  -0.004177
     48      -0.201577  -0.261925   0.061432  -0.004889  -0.001120  -0.001911
     49      -0.209293  -0.454063   0.350458  -0.001616   0.000253   0.001974
     50       0.182437  -0.006854   0.506923   0.000024   0.000029   0.001338
     51      -0.186885  -0.482714   0.210085  -0.001062   0.000101  -0.000559
     52       0.083442   0.116211  -0.091665   0.000312  -0.000874  -0.000878
     53       0.148148  -0.514179  -0.309277   0.000609  -0.000314   0.006396
     54      -0.257812   0.227482  -0.368935  -0.000847   0.000157  -0.001425
     55      -0.178404   0.366587   0.562349  -0.002126  -0.000035  -0.002159
     56       0.119334  -0.137966  -0.090063   0.003633   0.000679  -0.000214
                 48         49         50         51         52         53    
      0      -0.000539  -0.001971   0.007098   0.012150  -0.000959  -0.000096
      1       0.001679   0.020382  -0.060726  -0.064500   0.009148  -0.000100
      2       0.001555  -0.012526  -0.069501   0.059148  -0.008575  -0.000032
      3       0.000493  -0.016362  -0.000676  -0.004102   0.000453   0.000478
      4       0.000707  -0.066126  -0.003672  -0.018332   0.002054   0.000059
      5      -0.000809   0.044557   0.001480   0.012250  -0.001197  -0.000172
      6       0.000986  -0.009634   0.000362  -0.001788   0.000387   0.000234
      7       0.001613  -0.009438  -0.000210  -0.001631   0.000603   0.000205
      8       0.000430  -0.003126   0.000095  -0.000324  -0.000081  -0.000223
      9       0.000033  -0.000181  -0.000043   0.000224  -0.000049   0.000059
     10      -0.000039   0.000282   0.000007   0.000134  -0.000287  -0.000069
     11       0.000095  -0.000227   0.000034  -0.000153  -0.000139  -0.000068
     12      -0.000798  -0.001573  -0.000648  -0.000602   0.000994  -0.001958
     13       0.000072   0.001695   0.000295   0.000386  -0.000156  -0.000253
     14      -0.000767   0.001247   0.000126   0.000158  -0.000758   0.001521
     15      -0.068788  -0.002139  -0.001842   0.008087   0.057924   0.000304
     16       0.010429   0.001075   0.000173  -0.000348  -0.000840  -0.000348
     17      -0.061845  -0.000267  -0.001576  -0.010245  -0.066878  -0.000270
     18      -0.000324   0.000200  -0.000108  -0.000029  -0.000629  -0.032341
     19       0.000019   0.000067   0.000081  -0.000014  -0.000869   0.005631
     20      -0.000468   0.000108  -0.000030   0.000062   0.000263   0.025135
     21      -0.004465   0.015674   0.271028  -0.119668   0.014081   0.000172
     22      -0.003642   0.018864   0.189248  -0.105651   0.013245   0.000131
     23      -0.010775   0.040465   0.613078  -0.273732   0.031996   0.000294
     24       0.011399   0.057437  -0.347870  -0.170705   0.020730   0.000898
     25      -0.018689  -0.099421   0.583625   0.283214  -0.034464  -0.000655
     26      -0.006404  -0.041495   0.198206   0.118694  -0.014334  -0.000161
     27       0.000310  -0.036405  -0.006699   0.141559  -0.021257  -0.000007
     28       0.001726  -0.162774  -0.047962   0.595459  -0.093278   0.000685
     29      -0.001553   0.152625   0.017949  -0.552865   0.085925  -0.000428
     30      -0.003038   0.199010   0.008962   0.057797  -0.005695  -0.000647
     31      -0.016164   0.768468   0.036923   0.209167  -0.020859   0.000343
     32       0.010466  -0.520051  -0.023527  -0.139777   0.013875   0.001190
     33      -0.010850   0.111194   0.003434   0.016996  -0.003166  -0.001426
     34      -0.009720   0.102592   0.002398   0.016372  -0.002416   0.000155
     35      -0.000550   0.015784   0.000969   0.002286  -0.000501   0.000287
     36       0.000094  -0.000505   0.000549  -0.000321  -0.000642   0.000108
     37       0.000120  -0.000508  -0.000067  -0.000515  -0.000617   0.000028
     38      -0.000108   0.001021   0.000894  -0.000516   0.000286  -0.000387
     39       0.554136   0.017032   0.013039  -0.017567  -0.133347  -0.002406
     40      -0.377066  -0.011429  -0.008571   0.013240   0.094105   0.000185
     41       0.167399   0.005513   0.003970  -0.008559  -0.057556  -0.000048
     42       0.245231   0.001195   0.006525   0.016917   0.095633  -0.000046
     43       0.239913   0.000969   0.006969   0.014097   0.077039  -0.000131
     44       0.625604   0.003911   0.017568   0.037302   0.202676   0.001768
     45       0.022347   0.005667   0.001409  -0.093230  -0.656449   0.002397
     46       0.011599   0.002006   0.000720  -0.020724  -0.148063   0.001909
     47      -0.054560  -0.006260  -0.002954   0.092976   0.657712  -0.001847
     48       0.007102   0.000507   0.000349  -0.000238  -0.000799   0.515132
     49      -0.000115   0.002025  -0.000307   0.000171  -0.001009  -0.341534
     50      -0.000356  -0.001310   0.000351  -0.000148   0.000006   0.205315
     51       0.001061   0.005695   0.000481   0.001290   0.000002   0.101183
     52      -0.000140  -0.000668   0.000134  -0.000130   0.005048   0.439117
     53       0.001310  -0.001768  -0.000172  -0.000285   0.000671  -0.000524
     54      -0.001377   0.001063  -0.000181   0.000234  -0.000210  -0.154525
     55      -0.000256  -0.000994  -0.000069  -0.000652  -0.000889  -0.172178
     56       0.006573  -0.002430   0.000196  -0.000507   0.001109  -0.563480
                  54         55         56    
      0      -0.000019  -0.000023  -0.000110
      1      -0.000022  -0.000147  -0.000007
      2      -0.000094   0.000033  -0.000025
      3      -0.000491  -0.000106  -0.000135
      4       0.000664   0.000283  -0.000229
      5       0.000037  -0.000034   0.000186
      6       0.000080   0.000097   0.000415
      7      -0.000382   0.000345  -0.001375
      8      -0.000661   0.000266   0.000026
      9       0.000007  -0.000025   0.028027
     10      -0.000054  -0.000059  -0.039354
     11      -0.000007  -0.000035  -0.039790
     12       0.000340   0.000120  -0.000001
     13      -0.000156  -0.000812   0.000260
     14       0.000409  -0.000229   0.000296
     15      -0.000678  -0.000187  -0.000012
     16       0.000141   0.000590   0.000016
     17      -0.000624   0.000392   0.000087
     18       0.050330  -0.004003  -0.000048
     19      -0.013334  -0.078770   0.000002
     20       0.061753  -0.014014  -0.000006
     21       0.000087  -0.000159   0.000294
     22       0.000108   0.000016  -0.000062
     23       0.000188   0.000090   0.000079
     24       0.000084   0.000387   0.000464
     25       0.000475   0.000173  -0.000368
     26      -0.000054  -0.000199   0.000258
     27       0.000279  -0.000010  -0.000329
     28      -0.000097   0.000461   0.000460
     29      -0.000044  -0.000624  -0.000820
     30      -0.001553   0.001119   0.000146
     31      -0.001849   0.001047   0.000525
     32       0.001864   0.001279   0.001088
     33       0.001665  -0.001360  -0.002865
     34       0.000759   0.000978  -0.003036
     35      -0.000558  -0.000877   0.003039
     36      -0.000990   0.000760  -0.444760
     37       0.000346   0.000073   0.642479
     38       0.000406  -0.000383   0.620852
     39       0.004842   0.001759  -0.000112
     40      -0.002062  -0.000413   0.000182
     41       0.001476   0.000163   0.000038
     42       0.002104  -0.000619  -0.000027
     43       0.000553  -0.000501   0.000209
     44       0.005069  -0.002315   0.000192
     45       0.000013   0.002889   0.000179
     46       0.000158   0.000089  -0.000120
     47      -0.000118  -0.003482  -0.000208
     48      -0.549522  -0.242803   0.000501
     49       0.366369   0.144852  -0.000301
     50      -0.201421  -0.095538   0.000063
     51       0.017917   0.215754   0.000383
     52       0.029004   0.866516   0.000377
     53       0.012399  -0.014976  -0.000466
     54      -0.165273   0.079475   0.000086
     55      -0.210535   0.079133   0.000163
     56      -0.666086   0.307045   0.000723


-----------
IR SPECTRUM
-----------

 Mode    freq (cm**-1)   T**2         TX         TY         TZ
-------------------------------------------------------------------
   6:       152.06    2.247415  ( -1.185634  -0.233814  -0.887141)
   7:       164.63    0.034568  ( -0.035009   0.179739   0.032195)
   8:       184.20    2.630484  ( -1.300971  -0.011003  -0.968420)
   9:       189.19    0.538099  ( -0.381035   0.272658   0.564418)
  10:       208.03    0.793154  ( -0.032926   0.715527  -0.529236)
  11:       268.31   15.785325  (  3.210243  -0.201855   2.332149)
  12:       277.20   17.732314  ( -1.740370  -0.487366  -3.803406)
  13:       310.16  126.323303  (  9.404869   2.464552   5.638947)
  14:       356.88    6.520910  (  0.144027   2.480798   0.588053)
  15:       456.37    5.733209  ( -0.949022  -1.692895   1.402381)
  16:       505.57   12.906846  (  2.351205   1.250267  -2.411538)
  17:       599.87    1.481398  (  0.943992   0.485084   0.595794)
  18:       693.47    2.132227  ( -0.771544   0.488053   1.139628)
  19:       798.95    5.461621  (  0.282977  -2.060724  -1.065347)
  20:       851.26    2.926941  (  0.783925  -1.511026  -0.170889)
  21:       944.73    1.314867  ( -0.822313  -0.628822  -0.493205)
  22:       969.07   10.004378  ( -1.998015  -0.804580  -2.316240)
  23:       987.06    8.134333  (  0.348380  -2.774358  -0.562051)
  24:      1008.67    9.762410  (  1.317000  -2.466868  -1.393731)
  25:      1052.20   27.690113  (  1.202926   2.791044  -4.295713)
  26:      1077.97   22.976866  ( -0.863603  -1.129170   4.577776)
  27:      1123.57    5.542429  (  0.882165  -2.039257   0.778231)
  28:      1161.66   18.512876  ( -2.305440   0.303717   3.620163)
  29:      1193.68   33.254699  ( -1.291438  -0.218809   5.615960)
  30:      1209.40   14.252521  ( -3.545890  -0.502069   1.194618)
  31:      1251.34   25.519914  ( -0.272039   1.987507  -4.636348)
  32:      1272.88   75.153465  (  0.076882   4.796835  -7.220660)
  33:      1362.07    0.972827  (  0.007450  -0.177251   0.970234)
  34:      1388.86    2.955196  ( -1.619966   0.119640   0.562664)
  35:      1417.29    2.722184  ( -0.678480  -1.173332   0.940819)
  36:      1428.85   19.802716  (  2.823675   3.331816  -0.853569)
  37:      1467.38    5.983308  (  2.135822   0.510103  -1.077667)
  38:      1474.68    8.964178  ( -1.219604   2.439587  -1.234974)
  39:      1483.57    9.467021  ( -1.995390  -1.626741   1.684978)
  40:      1492.92   31.695511  (  3.000865  -0.472676  -4.739926)
  41:      1501.36   63.209886  (  7.506917   0.930232  -2.447602)
  42:      1524.35   63.445137  ( -3.741998  -2.929102   6.392414)
  43:      1647.09   42.630851  ( -4.148349   0.123973  -5.040504)
  44:      1656.08   39.220442  (  0.131083   6.233973   0.583820)
  45:      3053.42    9.286312  (  1.666356  -1.854845  -1.751890)
  46:      3070.69    5.222720  ( -2.219996  -0.253854  -0.479472)
  47:      3091.02   16.757998  (  3.200837   2.133014  -1.401032)
  48:      3120.80    4.974039  ( -1.559657   0.363437  -1.552232)
  49:      3131.01    8.340486  ( -2.344930  -1.168612   1.214963)
  50:      3141.84    3.481436  ( -0.179802  -1.210412  -1.408549)
  51:      3160.28    5.361159  ( -0.238313  -1.779824   1.461709)
  52:      3183.16    0.662768  ( -0.414245  -0.532979   0.455085)
  53:      3400.53   27.716677  (  4.195009  -0.657770  -3.112220)
  54:      3475.77   74.094602  ( -5.233537   1.392831  -6.690643)
  55:      3502.81   68.155308  (  0.981102   8.126058   1.077001)
  56:      3839.23  102.106257  ( -3.610458   4.100090   8.500595)

The first frequency considered to be a vibration is 6
The total number of vibrations considered is 51


--------------------------
THERMOCHEMISTRY AT 298.15K
--------------------------

Temperature         ... 298.15 K
Pressure            ... 1.00 atm
Total Mass          ... 102.16 AMU

Throughout the following assumptions are being made:
  (1) The electronic state is orbitally nondegenerate
  (2) There are no thermally accessible electronically excited states
  (3) Hindered rotations indicated by low frequency modes) are not
      treated as such but are treated as vibrations and this may
      case some error
  (4) All equations used are the standard statistical mechanics
      equations for an ideal gas
  (5) All vibrations are strinctly harmonic


------------
INNER ENERGY
------------

The inner energy is: U= E(el) + E(ZPE) + E(vib) + E(rot) + E(trans)
    E(el)   - is the total energy from the electronic structure calculation
              = E(kin-el) + E(nuc-el) + E(el-el) + E(nuc-nuc)
    E(ZPE)  - the the zero temperature vibrational energy from the frequency calculation
    E(vib)  - the the finite temperature correction to E(ZPE) due to population
              of excietd vibrational states
    E(rot)  - is the rotational thermal energy
    E(trans)- is the translational thermal energy

Summary of contributions to the inner energy U:
Electronic energy                ...   -327.20143582 Eh
Zero point energy                ...      0.17378650 Eh     109.05 kcal/mol
Thermal vibrational correction   ...      0.00592615 Eh       3.72 kcal/mol
Thermal rotational correction    ...      0.00141627 Eh       0.89 kcal/mol
Thermal translational correction ...      0.00141627 Eh       0.89 kcal/mol
-----------------------------------------------------------------------
Total thermal energy                   -327.01889063 Eh


Summary of corrections to the electronic energy:
(perhaps to be used in another calculation)
Total thermal correction                  0.00875869 Eh       5.50 kcal/mol
Non-thermal (ZPE) correction              0.17378650 Eh     109.05 kcal/mol
-----------------------------------------------------------------------
Total correction                          0.18254519 Eh     114.55 kcal/mol


--------
ENTHALPY
--------

The enthalpy is H = U + kB*T
                kB is Boltzmann's constant
Total free energy                 ...   -327.01889063 Eh 
Thermal Enthalpy correction       ...      0.00094421 Eh       0.59 kcal/mol
-----------------------------------------------------------------------
Total Enthalpy                    ...   -327.01794642 Eh


-------
ENTROPY
-------

The entropy contributions are T*S = T*(S(el)+S(vib)+S(rot)+S(trans)
     S(el)   - electronic entropy
     S(vib)  - vibrational entropy
     S(rot)  - rotational entropy
     S(trans)- translational entropy
The entropies will be listed as mutliplied by the temperature to get
units of energy

Electronic entropy                ...      0.00000000 Eh      0.00 kcal/mol
Vibrational entropy               ...      0.00993395 Eh      6.23 kcal/mol
Rotational entropy                ...      0.01204585 Eh      7.56 kcal/mol
Translational entropy             ...      0.01890147 Eh     11.86 kcal/mol
-----------------------------------------------------------------------
Final entropy term                ...      0.04088127 Eh     25.65 kcal/mol


CAUTION: The rotational entropy is not quite correctly treated here
         because it includes a symmetry number that is not yet correctly
         implemented in ORCA!
For a nonlinear molecule the correct rotational entropy is:
    S(rot) = R*(ln(qrot/sn)+1.5)
    R    = 8.31441 J/mol/K = 1.987191683e-3 kcal/mol/K
    qrot = 232489.8897216
    sn is the rotational symmetry number. We have assumed 3 here
       if it is different for your molecule then you should correct
       the printed rotational entropy by manually evaluating the equation
       as given above

For convenience we print out the resulting values for sn=1 - 12:
 sn= 1  qrot/sn=  232489.8897 T*S(rot)=     8.21 kcal/mol T*S(tot)=    26.30 kcal/mol
 sn= 2  qrot/sn=  116244.9449 T*S(rot)=     7.80 kcal/mol T*S(tot)=    25.89 kcal/mol
 sn= 3  qrot/sn=   77496.6299 T*S(rot)=     7.56 kcal/mol T*S(tot)=    25.65 kcal/mol
 sn= 4  qrot/sn=   58122.4724 T*S(rot)=     7.39 kcal/mol T*S(tot)=    25.48 kcal/mol
 sn= 5  qrot/sn=   46497.9779 T*S(rot)=     7.26 kcal/mol T*S(tot)=    25.35 kcal/mol
 sn= 6  qrot/sn=   38748.3150 T*S(rot)=     7.15 kcal/mol T*S(tot)=    25.24 kcal/mol
 sn= 7  qrot/sn=   33212.8414 T*S(rot)=     7.06 kcal/mol T*S(tot)=    25.15 kcal/mol
 sn= 8  qrot/sn=   29061.2362 T*S(rot)=     6.98 kcal/mol T*S(tot)=    25.07 kcal/mol
 sn= 9  qrot/sn=   25832.2100 T*S(rot)=     6.91 kcal/mol T*S(tot)=    25.00 kcal/mol
 sn=10  qrot/sn=   23248.9890 T*S(rot)=     6.85 kcal/mol T*S(tot)=    24.94 kcal/mol
 sn=11  qrot/sn=   21135.4445 T*S(rot)=     6.79 kcal/mol T*S(tot)=    24.88 kcal/mol
 sn=12  qrot/sn=   19374.1575 T*S(rot)=     6.74 kcal/mol T*S(tot)=    24.83 kcal/mol


-------------------
GIBBS FREE ENTHALPY
-------------------

The Gibbs free enthalpy is G = H - T*S

Total enthalpy                    ...   -327.01794642 Eh 
Total entropy correction          ...     -0.04088127 Eh    -25.65 kcal/mol
-----------------------------------------------------------------------
Final Gibbs free enthalpy         ...   -327.05882769 Eh

For completeness - the Gibbs free enthalpy minus the electronic energy
G-E(el)                           ...      0.14260814 Eh     89.49 kcal/mol


Timings for individual modules:

Sum of individual times         ...     2418.070 sec (=  40.301 min)
GTO integral calculation        ...       10.232 sec (=   0.171 min)   0.4 %
SCF iterations                  ...      211.391 sec (=   3.523 min)   8.7 %
SCF Gradient evaluation         ...      135.319 sec (=   2.255 min)   5.6 %
Geometry relaxation             ...        0.317 sec (=   0.005 min)   0.0 %
Analytical frequency calculation...     2060.811 sec (=  34.347 min)  85.2 %
                             ****ORCA TERMINATED NORMALLY****
TOTAL RUN TIME: 0 days 0 hours 40 minutes 19 seconds 816 msec
