
                                 *****************
                                 * O   R   C   A *
                                 *****************

           --- An Ab Initio, DFT and Semiempirical electronic structure package ---

                  #######################################################
                  #                        -***-                        #
                  #  Department of molecular theory and spectroscopy    #
                  #              Directorship: Frank Neese              #
                  # Max Planck Institute for Chemical Energy Conversion #
                  #                  D-45470 Muelheim/Ruhr              #
                  #                       Germany                       #
                  #                                                     #
                  #                  All rights reserved                #
                  #                        -***-                        #
                  #######################################################


                         Program Version 3.0.3 - RELEASE   -


 With contributions from (in alphabetic order):
   Ute Becker             : Parallelization
   Dmytro Bykov           : SCF Hessian
   Dmitry Ganyushin       : Spin-Orbit,Spin-Spin,Magnetic field MRCI
   Andreas Hansen         : Spin unrestricted coupled pair/coupled cluster methods
   Dimitrios Liakos       : Extrapolation schemes; parallel MDCI
   Robert Izsak           : Overlap fitted RIJCOSX, COSX-SCS-MP3
   Christian Kollmar      : KDIIS, OOCD, Brueckner-CCSD(T), CCSD density
   Simone Kossmann        : Meta GGA functionals, TD-DFT gradient, OOMP2, MP2 Hessian
   Taras Petrenko         : DFT Hessian,TD-DFT gradient, ASA and ECA modules, normal mode analysis, Resonance Raman, ABS, FL, XAS/XES, NRVS
   Christoph Reimann      : Effective Core Potentials
   Michael Roemelt        : Restricted open shell CIS
   Christoph Riplinger    : Improved optimizer, TS searches, QM/MM, DLPNO-CCSD
   Barbara Sandhoefer     : DKH picture change effects
   Igor Schapiro          : Molecular dynamics
   Kantharuban Sivalingam : CASSCF convergence, NEVPT2
   Boris Wezisla          : Elementary symmetry handling
   Frank Wennmohs         : Technical directorship


 We gratefully acknowledge several colleagues who have allowed us to
 interface, adapt or use parts of their codes:
   Stefan Grimme, W. Hujo, H. Kruse, T. Risthaus : VdW corrections, initial TS optimization,
                                                   DFT functionals, gCP
   Ed Valeev                                     : LibInt (2-el integral package), F12 methods
   Garnet Chan, S. Sharma, R. Olivares           : DMRG
   Ulf Ekstrom                                   : XCFun DFT Library
   Mihaly Kallay                                 : mrcc  (arbitrary order and MRCC methods)
   Andreas Klamt, Michael Diedenhofen            : otool_cosmo (COSMO solvation model)
   Frank Weinhold                                : gennbo (NPA and NBO analysis)
   Christopher J. Cramer and Donald G. Truhlar   : smd solvation model


 Your calculation uses the libint2 library for the computation of 2-el integrals
 For citations please refer to: http://libint.valeyev.net

 This ORCA versions uses:
   CBLAS   interface :  Fast vector & matrix operations
   LAPACKE interface :  Fast linear algebra routines
   SCALAPACK package :  Parallel linear algebra routines


Your calculation utilizes the basis: Ahlrichs-TZV
Cite in your paper:
H - Kr: A. Schaefer, H. Horn and R. Ahlrichs, J. Chem. Phys. 97, 2571 (1992).

The def2-TZV basis will be loaded
Cite in your paper:
 	F. Weigend, R. Ahlrichs, Phys. Chem. Chem. Phys. 2005, 7, 3297.

================================================================================
                                        WARNINGS
                       Please study these warnings very carefully!
================================================================================
Now building the actual basis set
WARNING: Geometry optimizations can change the point-group symmetry!

WARNING: Geometry Optimization
  ===> : Switching off AutoStart
         For restart on a previous wavefunction, please use MOREAD


INFO   : the flag for use of LIBINT has been found!

================================================================================
                                       INPUT FILE
================================================================================
NAME = 4803_+.inp
|  1> ! NORI PBE0 def2-TZVP UseSym TightOPT Freq TightSCF Grid3 FinalGrid5 XYZFile
|  2> % pal
|  3>     nprocs 8
|  4> end
|  5> %method
|  6>     SymThresh 5.0e-2
|  7> end
|  8> % geom 
|  9>     MaxIter 10
| 10> end 
| 11> % maxcore 2000
| 12> % output
| 13>     printlevel mini
| 14>     print[ P_Basis ] 0
| 15>     print[ P_SCFInfo ] 1
| 16>     print[ P_SCFIterInfo ] 1
| 17>     print[ P_OrbEn ] 0
| 18>     print[ P_Cartesian ] 0
| 19> end
| 20> % elprop
| 21>     Dipole false
| 22> end
| 23> *xyz 1 1
| 24>  C        0.9901286077     0.2481382501    -0.2352252713 
| 25>  C        2.4620127594     0.2211213902     0.0092987160 
| 26>  N        3.2637630557    -0.7797189227    -0.7564830787 
| 27>  C        3.4421992332     0.7110371370    -0.9774816365 
| 28>  C        4.7325318649     1.2944309709    -0.6023464561 
| 29>  N        5.3247276942     1.9628867368    -1.5075178708 
| 30>  O        6.4806118244     2.4982392553    -1.0902810176 
| 31>  H        0.5906040602     1.1926045574     0.1391264341 
| 32>  H        0.4887459276    -0.5623617407     0.2958656163 
| 33>  H        0.7531616938     0.1843679197    -1.2996598292 
| 34>  H        2.7804058478     0.2534817021     1.0473467451 
| 35>  H        4.0087925474    -1.2804475033    -0.2841182775 
| 36>  H        2.7958040654    -1.3126573893    -1.4821282140 
| 37>  H        3.0698693284     1.0127814992    -1.9504478469 
| 38>  H        5.1335630054     1.1840094034     0.4062471382 
| 39>  H        6.8191984844     2.9845267340    -1.8527351509 
| 40> *
| 41> 
| 42>                          ****END OF INPUT****
================================================================================

The point group is C1 - hence turning off symmetry
If this is a round-off problem, please increase the symmetry
        detection tolerance (%method SymThresh)


                       *****************************
                       * Geometry Optimization Run *
                       *****************************

Geometry optimization settings:
Update method            Update   .... BFGS
Choice of coordinates    CoordSys .... Redundant Internals
Initial Hessian          InHess   .... Almoef's Model

Convergence Tolerances:
Energy Change            TolE     ....  1.0000e-06 Eh
Max. Gradient            TolMAXG  ....  1.0000e-04 Eh/bohr
RMS Gradient             TolRMSG  ....  3.0000e-05 Eh/bohr
Max. Displacement        TolMAXD  ....  1.0000e-03 bohr
RMS Displacement         TolRMSD  ....  6.0000e-04 bohr

------------------------------------------------------------------------------
                        ORCA OPTIMIZATION COORDINATE SETUP
------------------------------------------------------------------------------

The optimization will be done in new redundant internal coordinates
Making redundant internal coordinates   ...  (new redundants) done
Evaluating the initial hessian          ...  (Almloef) done
Evaluating the coordinates              ...  done
Calculating the B-matrix                .... done
Calculating the G-matrix                .... done
Diagonalizing the G-matrix              .... done
The first mode is                       ....   45
The number of degrees of freedom        ....   42

    -----------------------------------------------------------------
                    Redundant Internal Coordinates


    -----------------------------------------------------------------
         Definition                    Initial Value    Approx d2E/dq
    -----------------------------------------------------------------
      1. B(C   1,C   0)                  1.4923         0.429064   
      2. B(N   2,C   1)                  1.4936         0.382431   
      3. B(C   3,C   1)                  1.4746         0.457852   
      4. B(C   3,N   2)                  1.5176         0.350218   
      5. B(C   4,C   3)                  1.4649         0.474444   
      6. B(N   5,C   4)                  1.2716         0.864648   
      7. B(O   6,N   5)                  1.3404         0.601306   
      8. B(H   7,C   0)                  1.0917         0.357878   
      9. B(H   8,C   0)                  1.0910         0.358736   
     10. B(H   9,C   0)                  1.0924         0.356997   
     11. B(H  10,C   1)                  1.0863         0.365079   
     12. B(H  11,N   2)                  1.0144         0.425832   
     13. B(H  12,N   2)                  1.0147         0.425337   
     14. B(H  13,C   3)                  1.0846         0.367324   
     15. B(H  14,C   4)                  1.0910         0.358780   
     16. B(H  15,O   6)                  0.9656         0.509302   
     17. A(C   1,C   0,H   8)          111.1033         0.331603   
     18. A(H   8,C   0,H   9)          109.3463         0.290272   
     19. A(H   7,C   0,H   8)          107.9141         0.290384   
     20. A(H   7,C   0,H   9)          107.7739         0.290162   
     21. A(C   1,C   0,H   7)          108.6894         0.331472   
     22. A(C   1,C   0,H   9)          111.8746         0.331337   
     23. A(N   2,C   1,C   3)           61.4929         0.375430   
     24. A(C   3,C   1,H  10)          115.7691         0.336174   
     25. A(C   0,C   1,N   2)          117.2298         0.371251   
     26. A(N   2,C   1,H  10)          110.6447         0.324354   
     27. A(C   0,C   1,H  10)          116.4325         0.332568   
     28. A(C   0,C   1,C   3)          122.6798         0.385426   
     29. A(H  11,N   2,H  12)          114.3614         0.301653   
     30. A(C   3,N   2,H  12)          117.7769         0.325046   
     31. A(C   1,N   2,H  12)          118.1020         0.329795   
     32. A(C   3,N   2,H  11)          117.7990         0.325109   
     33. A(C   1,N   2,H  11)          119.0964         0.329858   
     34. A(C   1,N   2,C   3)           58.6371         0.356354   
     35. A(N   2,C   3,C   4)          117.2243         0.372053   
     36. A(C   1,C   3,C   4)          123.1221         0.392249   
     37. A(N   2,C   3,H  13)          111.3194         0.320033   
     38. A(C   1,C   3,H  13)          117.6809         0.336517   
     39. A(C   4,C   3,H  13)          114.9168         0.338520   
     40. A(C   1,C   3,N   2)           59.8700         0.369782   
     41. A(N   5,C   4,H  14)          122.6908         0.370967   
     42. A(C   3,C   4,H  14)          121.3456         0.337194   
     43. A(C   3,C   4,N   5)          115.9304         0.436301   
     44. A(C   4,N   5,O   6)          112.9533         0.449371   
     45. A(N   5,O   6,H  15)          104.9345         0.364538   
     46. D(N   2,C   1,C   0,H   9)    -44.0824         0.014554   
     47. D(H  10,C   1,C   0,H   8)    -55.8786         0.014554   
     48. D(H  10,C   1,C   0,H   9)   -178.3981         0.014554   
     49. D(N   2,C   1,C   0,H   7)   -162.9684         0.014554   
     50. D(C   3,C   1,C   0,H   7)    -90.8827         0.014554   
     51. D(H  10,C   1,C   0,H   7)     62.7159         0.014554   
     52. D(C   3,C   1,C   0,H   9)     28.0033         0.014554   
     53. D(C   3,C   1,C   0,H   8)    150.5228         0.014554   
     54. D(N   2,C   1,C   0,H   8)     78.4371         0.014554   
     55. D(C   3,N   2,C   1,H  10)   -108.9079         0.013389   
     56. D(H  11,N   2,C   1,C   0)   -139.0886         0.013389   
     57. D(H  11,N   2,C   1,H  10)     -2.2981         0.013389   
     58. D(H  12,N   2,C   1,C   0)      7.2498         0.013389   
     59. D(C   3,N   2,C   1,C   0)    114.3016         0.013389   
     60. D(H  11,N   2,C   1,C   3)    106.6098         0.013389   
     61. D(H  12,N   2,C   1,H  10)    144.0402         0.013389   
     62. D(H  12,N   2,C   1,C   3)   -107.0518         0.013389   
     63. D(C   4,C   3,N   2,H  12)   -138.0708         0.011306   
     64. D(C   4,C   3,N   2,H  11)      5.5140         0.011306   
     65. D(C   4,C   3,N   2,C   1)    114.3247         0.011306   
     66. D(C   1,C   3,N   2,H  11)   -108.8107         0.011306   
     67. D(H  13,C   3,C   1,H  10)   -159.6348         0.016559   
     68. D(H  13,C   3,C   1,N   2)     99.8014         0.016559   
     69. D(H  13,C   3,C   1,C   0)     -5.8755         0.016559   
     70. D(C   4,C   3,C   1,H  10)     -4.0855         0.016559   
     71. D(C   1,C   3,N   2,H  12)    107.6044         0.011306   
     72. D(C   4,C   3,C   1,N   2)   -104.6493         0.016559   
     73. D(C   4,C   3,C   1,C   0)    149.6739         0.016559   
     74. D(N   2,C   3,C   1,H  10)    100.5638         0.016559   
     75. D(H  13,C   3,N   2,C   1)   -110.4913         0.011306   
     76. D(N   2,C   3,C   1,C   0)   -105.6768         0.016559   
     77. D(H  13,C   3,N   2,H  12)     -2.8869         0.011306   
     78. D(H  13,C   3,N   2,H  11)    140.6980         0.011306   
     79. D(H  14,C   4,C   3,N   2)    -55.6228         0.016596   
     80. D(H  14,C   4,C   3,C   1)     14.6001         0.016596   
     81. D(N   5,C   4,C   3,H  13)     -7.1947         0.016596   
     82. D(N   5,C   4,C   3,N   2)    126.4205         0.016596   
     83. D(H  14,C   4,C   3,H  13)    170.7619         0.016596   
     84. D(N   5,C   4,C   3,C   1)   -163.3565         0.016596   
     85. D(O   6,N   5,C   4,H  14)      0.4191         0.058754   
     86. D(O   6,N   5,C   4,C   3)    178.3456         0.058754   
     87. D(H  15,O   6,N   5,C   4)   -179.0983         0.027474   
    -----------------------------------------------------------------

Number of atoms                         .... 16
Number of degrees of freedom            .... 87

         *************************************************************
         *                GEOMETRY OPTIMIZATION CYCLE   1            *
         *************************************************************


           ************************************************************
           *        Program running with 8 parallel MPI-processes     *
           *              working on a common directory               *
           ************************************************************
           ************************************************************
           *              Shut down parallel processing               *
           ************************************************************


           ************************************************************
           *        Program running with 8 parallel MPI-processes     *
           *              working on a common directory               *
           ************************************************************
------------
SCF SETTINGS
------------
Hamiltonian:
 Density Functional     Method          .... DFT(GTOs)
 Exchange Functional    Exchange        .... PBE
   PBE kappa parameter  XKappa          ....  0.804000
 Correlation Functional Correlation     .... PBE
 LDA part of GGA corr.  LDAOpt          .... PW91-LDA
 Gradients option       PostSCFGGA      .... off
 Hybrid DFT is turned on
   Fraction HF Exchange ScalHFX         ....  0.250000
   Scaling of DF-GGA-X  ScalDFX         ....  0.750000
   Scaling of DF-GGA-C  ScalDFC         ....  1.000000
   Scaling of DF-LDA-C  ScalLDAC        ....  1.000000
   Perturbative correction              ....  0.000000
   NL short-range parameter             ....  6.900000


General Settings:
 Integral files         IntName         .... 4803_+
 Hartree-Fock type      HFTyp           .... RHF
 Total Charge           Charge          ....    1
 Multiplicity           Mult            ....    1
 Number of Electrons    NEL             ....   54
 Basis Dimension        Dim             ....  271
 Nuclear Repulsion      ENuc            ....    303.3421238158 Eh

Convergence Acceleration:
 DIIS                   CNVDIIS         .... on
   Start iteration      DIISMaxIt       ....    12
   Startup error        DIISStart       ....  0.200000
   # of expansion vecs  DIISMaxEq       ....     5
   Bias factor          DIISBfac        ....   1.050
   Max. coefficient     DIISMaxC        ....  10.000
 Newton-Raphson         CNVNR           .... off
 SOSCF                  CNVSOSCF        .... on
   Start iteration      SOSCFMaxIt      ....   150
   Startup grad/error   SOSCFStart      ....  0.003300
 Level Shifting         CNVShift        .... on
   Level shift para.    LevelShift      ....    0.2500
   Turn off err/grad.   ShiftErr        ....    0.0010
 Zerner damping         CNVZerner       .... off
 Static damping         CNVDamp         .... on
   Fraction old density DampFac         ....    0.7000
   Max. Damping (<1)    DampMax         ....    0.9800
   Min. Damping (>=0)   DampMin         ....    0.0000
   Turn off err/grad.   DampErr         ....    0.1000
 Fernandez-Rico         CNVRico         .... off

SCF Procedure:
 Maximum # iterations   MaxIter         ....   125
 SCF integral mode      SCFMode         .... Direct
   Integral package                     .... LIBINT
 Reset frequeny         DirectResetFreq ....    20
 Integral Threshold     Thresh          ....  2.500e-11 Eh
 Primitive CutOff       TCut            ....  2.500e-12 Eh

Convergence Tolerance:
 Convergence Check Mode ConvCheckMode   .... Total+1el-Energy
 Energy Change          TolE            ....  1.000e-08 Eh
 1-El. energy change                    ....  1.000e-05 Eh
 Orbital Gradient       TolG            ....  1.000e-05
 Orbital Rotation angle TolX            ....  1.000e-05
 DIIS Error             TolErr          ....  5.000e-07


Diagonalization of the overlap matrix:
Smallest eigenvalue                        ... 8.192e-05
Time for diagonalization                   ...    0.018 sec
Threshold for overlap eigenvalues          ... 1.000e-08
Number of eigenvalues below threshold      ... 0
Time for construction of square roots      ...    0.018 sec
Total time needed                          ...    0.036 sec

-------------------
DFT GRID GENERATION
-------------------

General Integration Accuracy     IntAcc      ...  4.340
Radial Grid Type                 RadialGrid  ... Gauss-Chebyshev
Angular Grid (max. acc.)         AngularGrid ... Lebedev-194
Angular grid pruning method      GridPruning ... 3 (G Style)
Weight generation scheme         WeightScheme... Becke
Basis function cutoff            BFCut       ...    1.0000e-11
Integration weight cutoff        WCut        ...    1.0000e-14
Grids for H and He will be reduced by one unit

# of grid points (after initial pruning)     ...  36892 (   0.0 sec)
# of grid points (after weights+screening)   ...  34235 (   0.1 sec)
nearest neighbour list constructed           ...    0.0 sec
Grid point re-assignment to atoms done       ...    0.0 sec
Grid point division into batches done        ...    0.1 sec
Reduced shell lists constructed in    0.2 sec

Total number of grid points                  ...    34235
Total number of batches                      ...      543
Average number of points per batch           ...       63
Average number of grid points per atom       ...     2140
Average number of shells per batch           ...    84.58 (74.85%)
Average number of basis functions per batch  ...   203.80 (75.20%)
Average number of large shells per batch     ...    70.39 (83.22%)
Average number of large basis fcns per batch ...   170.80 (83.81%)
Maximum spatial batch extension              ...   3.76,  2.51,  2.62 au
Average spatial batch extension              ...   0.15,  0.15,  0.15 au

Time for grid setup =    0.323 sec

Loading Hartree-Fock densities                     ... done
Calculating cut-offs                               ... done
Setting up the integral package                    ... done
Initializing the effective Hamiltonian             ... done
Starting the Coulomb interaction                   ... done (   0.0 sec)
Reading the grid                                   ... done
Mapping shells                                     ... done
Starting the XC term evaluation                    ... done (   0.2 sec)
  promolecular density results
     # of electrons  =     54.996517193
     EX              =    -44.389483823
     EC              =     -1.826616737
     EX+EC           =    -46.216100560
Transforming the Hamiltonian                       ... done (   0.0 sec)
Diagonalizing the Hamiltonian                      ... done (   0.0 sec)
Back transforming the eigenvectors                 ... done (   0.0 sec)
Now organizing SCF variables                       ... done
--------------
SCF ITERATIONS
--------------
ITER       Energy         Delta-E        Max-DP      RMS-DP      [F,P]     Damp
               ***  Starting incremental Fock matrix formation  ***
  0   -341.8513659126   0.000000000000 0.04888549  0.00083918  0.1638582 0.7000
  1   -341.9053782759  -0.054012363354 0.05135959  0.00069075  0.0862026 0.7000
                               ***Turning on DIIS***
  2   -341.9297883432  -0.024410067242 0.09284428  0.00131290  0.0350920 0.0000
  3   -341.9671226193  -0.037334276157 0.04471147  0.00049851  0.0447821 0.0000
  4   -341.9747969302  -0.007674310827 0.01397954  0.00015143  0.0066505 0.0000
  5   -341.9750357537  -0.000238823561 0.00536296  0.00005950  0.0049671 0.0000
                      *** Initiating the SOSCF procedure ***
                           *** Shutting down DIIS ***
                      *** Re-Reading the Fockian *** 
                      *** Removing any level shift *** 
ITER      Energy       Delta-E        Grad      Rot      Max-DP    RMS-DP
  6   -341.97508164  -0.0000458871  0.000292  0.000292  0.002261  0.000033
               *** Restarting incremental Fock matrix formation ***
  7   -341.97508313  -0.0000014880  0.000201  0.000815  0.000644  0.000011
  8   -341.97508127   0.0000018549  0.000469  0.000653  0.000433  0.000007
  9   -341.97508392  -0.0000026468  0.000024  0.000071  0.000065  0.000001
 10   -341.97508391   0.0000000150  0.000035  0.000054  0.000047  0.000001
 11   -341.97508394  -0.0000000365  0.000006  0.000008  0.000014  0.000000
 12   -341.97508394   0.0000000008  0.000007  0.000005  0.000008  0.000000
                 **** Energy Check signals convergence ****
              ***Rediagonalizing the Fockian in SOSCF/NRSCF***

               *****************************************************
               *                     SUCCESS                       *
               *           SCF CONVERGED AFTER  13 CYCLES          *
               *****************************************************

Setting up the final grid:

General Integration Accuracy     IntAcc      ...  5.010
Radial Grid Type                 RadialGrid  ... Gauss-Chebyshev
Angular Grid (max. acc.)         AngularGrid ... Lebedev-434
Angular grid pruning method      GridPruning ... 3 (G Style)
Weight generation scheme         WeightScheme... Becke
Basis function cutoff            BFCut       ...    1.0000e-11
Integration weight cutoff        WCut        ...    1.0000e-14
Grids for H and He will be reduced by one unit

# of grid points (after initial pruning)     ... 135042 (   0.0 sec)
# of grid points (after weights+screening)   ... 124030 (   0.1 sec)
nearest neighbour list constructed           ...    0.0 sec
Grid point re-assignment to atoms done       ...    0.0 sec
Grid point division into batches done        ...    0.8 sec
Reduced shell lists constructed in    0.9 sec

Total number of grid points                  ...   124030
Total number of batches                      ...     1946
Average number of points per batch           ...       63
Average number of grid points per atom       ...     7752
Average number of shells per batch           ...    84.04 (74.37%)
Average number of basis functions per batch  ...   202.90 (74.87%)
Average number of large shells per batch     ...    69.41 (82.59%)
Average number of large basis fcns per batch ...   168.36 (82.97%)
Maximum spatial batch extension              ...   3.92,  2.74,  3.21 au
Average spatial batch extension              ...   0.10,  0.10,  0.10 au

Final grid set up in    1.2 sec
Final integration                            ... done (   0.5 sec)
Change in XC energy                          ...     0.000367723
Integrated number of electrons               ...    53.999980334
Previous integrated no of electrons          ...    54.000234869
Total Energy       :         -341.97471622 Eh           -9305.60512 eV
  Last Energy change         ...   -1.3233e-09  Tolerance :   1.0000e-08
  Last MAX-Density change    ...    3.0582e-06  Tolerance :   1.0000e-07
             **** THE GBW FILE WAS UPDATED (4803_+.gbw) ****
             **** DENSITY FILE WAS UPDATED (4803_+.scfp.tmp) ****
             **** ENERGY FILE WAS UPDATED (4803_+.en.tmp) ****
Total SCF time: 0 days 0 hours 0 min 52 sec 
           ************************************************************
           *              Shut down parallel processing               *
           ************************************************************

-------------------------   --------------------
FINAL SINGLE POINT ENERGY      -341.974716219945
-------------------------   --------------------



           ************************************************************
           *        Program running with 8 parallel MPI-processes     *
           *              working on a common directory               *
           ************************************************************
------------------------------------------------------------------------------
                         ORCA SCF GRADIENT CALCULATION
------------------------------------------------------------------------------

Gradient of the Kohn-Sham DFT energy:
Kohn-Sham wavefunction type      ... RKS
Hartree-Fock exchange scaling    ...    0.250
Number of operators              ...    1
Number of atoms                  ...   16
Basis set dimensions             ...  271
Integral neglect threshold       ... 2.5e-11
Integral primitive cutoff        ... 2.5e-12

Nuclear repulsion gradient       ... done
One Electron Gradient            ... done
Pre-screening matrix             ... done
Starting the two electron gradient:
Two electron gradient done
Exchange-correlation gradient    ... done

------------------
CARTESIAN GRADIENT
------------------

   1   C   :    0.000132863   -0.000014110    0.000026190
   2   C   :   -0.000060480    0.000007098   -0.000071237
   3   N   :    0.000076354    0.000028514   -0.000084018
   4   C   :   -0.000089267    0.000044616    0.000333266
   5   C   :   -0.000024479    0.000132934   -0.000028362
   6   N   :    0.000034694   -0.000082847   -0.000096518
   7   O   :   -0.000065440   -0.000034061    0.000032895
   8   H   :   -0.000030715   -0.000033151   -0.000032699
   9   H   :   -0.000048635    0.000007090    0.000020901
  10   H   :   -0.000021510    0.000032321    0.000014986
  11   H   :   -0.000020993   -0.000056548    0.000038633
  12   H   :   -0.000002924   -0.000013033    0.000032853
  13   H   :    0.000004617    0.000051546    0.000002904
  14   H   :    0.000069213   -0.000107722   -0.000135331
  15   H   :   -0.000005727    0.000037200   -0.000050504
  16   H   :    0.000052427    0.000000152   -0.000003957

Norm of the cartesian gradient     ...    0.000513072
RMS gradient                       ...    0.000074056
MAX gradient                       ...    0.000333266

-------
TIMINGS
-------

Total SCF gradient time            ...       25.481 sec

One electron gradient       ....       0.210 sec  (  0.8%)
Prescreening matrices       ....       0.495 sec  (  1.9%)
Two electron gradient       ....      19.921 sec  ( 78.2%)
XC gradient                 ....       2.339 sec  (  9.2%)
           ************************************************************
           *              Shut down parallel processing               *
           ************************************************************
------------------------------------------------------------------------------
                         ORCA GEOMETRY RELAXATION STEP
------------------------------------------------------------------------------

Reading the OPT-File                    .... done
Getting information on internals        .... done
Copying old internal coords+grads       .... done
Making the new internal coordinates     .... (new redundants).... done
Validating the new internal coordinates .... (new redundants).... done
Calculating the B-matrix                .... done
Calculating the G,G- and P matrices     .... done
Transforming gradient to internals      .... done
Projecting the internal gradient        .... done
Number of atoms                         ....  16
Number of internal coordinates          ....  87
Current Energy                          ....  -341.974716220 Eh
Current gradient norm                   ....     0.000513072 Eh/bohr
Maximum allowed component of the step   ....  0.300
Current trust radius                    ....  0.300
Evaluating the initial hessian          ....  (Almloef) done
Projecting the Hessian                  .... done
Forming the augmented Hessian           .... done
Diagonalizing the augmented Hessian     .... done
Last element of RFO vector              ....  0.999988396
Lowest eigenvalues of augmented Hessian:
 -0.000000929  0.014554363  0.016596186  0.027430732  0.027474045
Length of the computed step             ....  0.004817458
The final length of the internal step   ....  0.004817458
Converting the step to cartesian space:
 Initial RMS(Int)=    0.0005164858
Transforming coordinates:
 Iter   0:  RMS(Cart)=    0.0012879157 RMS(Int)=    0.0005164652
 Iter   1:  RMS(Cart)=    0.0000023666 RMS(Int)=    0.0000018474
 Iter   2:  RMS(Cart)=    0.0000000102 RMS(Int)=    0.0000000050
done
Storing new coordinates                 .... done

                                .--------------------.
          ----------------------|Geometry convergence|---------------------
          Item                value                 Tolerance   Converged
          -----------------------------------------------------------------
          RMS gradient        0.00004208            0.00003000      NO
          MAX gradient        0.00015653            0.00010000      NO
          RMS step            0.00051649            0.00060000      YES
          MAX step            0.00335566            0.00100000      NO
          ....................................................
          Max(Bonds)      0.0002      Max(Angles)    0.03
          Max(Dihed)        0.19      Max(Improp)    0.00
          -----------------------------------------------------------------

The optimization has not yet converged - more geometry cycles are needed


    ---------------------------------------------------------------------------
                         Redundant Internal Coordinates
                            (Angstroem and degrees)

        Definition                    Value    dE/dq     Step     New-Value
    ----------------------------------------------------------------------------
     1. B(C   1,C   0)                1.4923 -0.000043  0.0001    1.4924   
     2. B(N   2,C   1)                1.4936  0.000070 -0.0001    1.4935   
     3. B(C   3,C   1)                1.4746  0.000022 -0.0000    1.4746   
     4. B(C   3,N   2)                1.5176  0.000029 -0.0001    1.5175   
     5. B(C   4,C   3)                1.4649 -0.000157  0.0002    1.4651   
     6. B(N   5,C   4)                1.2716 -0.000129  0.0001    1.2716   
     7. B(O   6,N   5)                1.3404  0.000039 -0.0000    1.3404   
     8. B(H   7,C   0)                1.0917  0.000035 -0.0001    1.0916   
     9. B(H   8,C   0)                1.0910 -0.000037  0.0001    1.0911   
    10. B(H   9,C   0)                1.0924  0.000028 -0.0000    1.0923   
    11. B(H  10,C   1)                1.0863  0.000062 -0.0001    1.0862   
    12. B(H  11,N   2)                1.0144  0.000016 -0.0000    1.0143   
    13. B(H  12,N   2)                1.0147  0.000039 -0.0000    1.0146   
    14. B(H  13,C   3)                1.0846 -0.000116  0.0002    1.0848   
    15. B(H  14,C   4)                1.0910 -0.000045  0.0001    1.0911   
    16. B(H  15,O   6)                0.9656 -0.000010  0.0000    0.9656   
    17. A(C   1,C   0,H   8)          111.10  0.000031   -0.01    111.10   
    18. A(H   8,C   0,H   9)          109.35  0.000004   -0.01    109.34   
    19. A(H   7,C   0,H   8)          107.91 -0.000043    0.01    107.93   
    20. A(H   7,C   0,H   9)          107.77 -0.000007    0.00    107.78   
    21. A(C   1,C   0,H   7)          108.69  0.000016   -0.00    108.69   
    22. A(C   1,C   0,H   9)          111.87 -0.000004   -0.00    111.87   
    23. A(N   2,C   1,C   3)           61.49 -0.000008    0.00     61.49   
    24. A(C   3,C   1,H  10)          115.77 -0.000005    0.00    115.77   
    25. A(C   0,C   1,N   2)          117.23 -0.000007    0.00    117.23   
    26. A(N   2,C   1,H  10)          110.64  0.000010   -0.00    110.64   
    27. A(C   0,C   1,H  10)          116.43  0.000004   -0.00    116.43   
    28. A(C   0,C   1,C   3)          122.68  0.000001    0.00    122.68   
    29. A(H  11,N   2,H  12)          114.36  0.000010   -0.00    114.36   
    30. A(C   3,N   2,H  12)          117.78 -0.000003    0.01    117.78   
    31. A(C   1,N   2,H  12)          118.10  0.000010   -0.01    118.09   
    32. A(C   3,N   2,H  11)          117.80 -0.000012    0.01    117.81   
    33. A(C   1,N   2,H  11)          119.10 -0.000006   -0.00    119.10   
    34. A(C   1,N   2,C   3)           58.64 -0.000011    0.00     58.64   
    35. A(N   2,C   3,C   4)          117.22 -0.000023    0.00    117.23   
    36. A(C   1,C   3,C   4)          123.12 -0.000045    0.01    123.14   
    37. A(N   2,C   3,H  13)          111.32 -0.000061    0.02    111.34   
    38. A(C   1,C   3,H  13)          117.68 -0.000046    0.01    117.69   
    39. A(C   4,C   3,H  13)          114.92  0.000099   -0.03    114.89   
    40. A(C   1,C   3,N   2)           59.87  0.000018   -0.00     59.87   
    41. A(N   5,C   4,H  14)          122.69 -0.000018    0.00    122.69   
    42. A(C   3,C   4,H  14)          121.35 -0.000110    0.02    121.36   
    43. A(C   3,C   4,N   5)          115.93  0.000128   -0.02    115.91   
    44. A(C   4,N   5,O   6)          112.95 -0.000041    0.01    112.96   
    45. A(N   5,O   6,H  15)          104.93  0.000002   -0.00    104.93   
    46. D(N   2,C   1,C   0,H   9)    -44.08 -0.000008    0.04    -44.05   
    47. D(H  10,C   1,C   0,H   8)    -55.88  0.000003    0.03    -55.85   
    48. D(H  10,C   1,C   0,H   9)   -178.40 -0.000022    0.05   -178.35   
    49. D(N   2,C   1,C   0,H   7)   -162.97 -0.000008    0.03   -162.93   
    50. D(C   3,C   1,C   0,H   7)    -90.88 -0.000020    0.04    -90.85   
    51. D(H  10,C   1,C   0,H   7)     62.72 -0.000021    0.04     62.76   
    52. D(C   3,C   1,C   0,H   9)     28.00 -0.000021    0.04     28.04   
    53. D(C   3,C   1,C   0,H   8)    150.52  0.000004    0.02    150.55   
    54. D(N   2,C   1,C   0,H   8)     78.44  0.000016    0.02     78.46   
    55. D(C   3,N   2,C   1,H  10)   -108.91  0.000011   -0.01   -108.92   
    56. D(H  11,N   2,C   1,C   0)   -139.09 -0.000015    0.01   -139.08   
    57. D(H  11,N   2,C   1,H  10)     -2.30 -0.000004    0.00     -2.30   
    58. D(H  12,N   2,C   1,C   0)      7.25  0.000013   -0.01      7.24   
    59. D(C   3,N   2,C   1,C   0)    114.30  0.000001    0.00    114.30   
    60. D(H  11,N   2,C   1,C   3)    106.61 -0.000016    0.01    106.62   
    61. D(H  12,N   2,C   1,H  10)    144.04  0.000023   -0.02    144.02   
    62. D(H  12,N   2,C   1,C   3)   -107.05  0.000012   -0.01   -107.07   
    63. D(C   4,C   3,N   2,H  12)   -138.07 -0.000030    0.00   -138.07   
    64. D(C   4,C   3,N   2,H  11)      5.51 -0.000033    0.02      5.53   
    65. D(C   4,C   3,N   2,C   1)    114.32 -0.000039    0.02    114.34   
    66. D(C   1,C   3,N   2,H  11)   -108.81  0.000006    0.00   -108.81   
    67. D(H  13,C   3,C   1,H  10)   -159.63 -0.000033    0.02   -159.62   
    68. D(H  13,C   3,C   1,N   2)     99.80 -0.000045    0.02     99.83   
    69. D(H  13,C   3,C   1,C   0)     -5.88 -0.000032    0.02     -5.85   
    70. D(C   4,C   3,C   1,H  10)     -4.09  0.000011   -0.00     -4.09   
    71. D(C   1,C   3,N   2,H  12)    107.60  0.000009   -0.01    107.59   
    72. D(C   4,C   3,C   1,N   2)   -104.65 -0.000000    0.01   -104.64   
    73. D(C   4,C   3,C   1,C   0)    149.67  0.000012    0.01    149.68   
    74. D(N   2,C   3,C   1,H  10)    100.56  0.000011   -0.01    100.56   
    75. D(H  13,C   3,N   2,C   1)   -110.49  0.000021    0.00   -110.49   
    76. D(N   2,C   3,C   1,C   0)   -105.68  0.000012   -0.00   -105.68   
    77. D(H  13,C   3,N   2,H  12)     -2.89  0.000031   -0.01     -2.90   
    78. D(H  13,C   3,N   2,H  11)    140.70  0.000028    0.01    140.70   
    79. D(H  14,C   4,C   3,N   2)    -55.62 -0.000011    0.04    -55.58   
    80. D(H  14,C   4,C   3,C   1)     14.60 -0.000014    0.05     14.65   
    81. D(N   5,C   4,C   3,H  13)     -7.19 -0.000015    0.06     -7.13   
    82. D(N   5,C   4,C   3,N   2)    126.42 -0.000025    0.07    126.49   
    83. D(H  14,C   4,C   3,H  13)    170.76 -0.000002    0.04    170.80   
    84. D(N   5,C   4,C   3,C   1)   -163.36 -0.000028    0.07   -163.28   
    85. D(O   6,N   5,C   4,H  14)      0.42 -0.000031    0.04      0.46   
    86. D(O   6,N   5,C   4,C   3)    178.35 -0.000019    0.01    178.36   
    87. D(H  15,O   6,N   5,C   4)   -179.10 -0.000092    0.19   -178.91   
    ----------------------------------------------------------------------------

         *************************************************************
         *                GEOMETRY OPTIMIZATION CYCLE   2            *
         *************************************************************
---------------------------------
CARTESIAN COORDINATES (ANGSTROEM)
---------------------------------
  C     -0.973984   -0.069551   -2.820344
  C     -0.242039   -0.557057   -1.614641
  N      1.122440   -0.000278   -1.371979
  C     -0.026156    0.281555   -0.421104
  C      0.076076   -0.265450    0.934211
  N     -0.068951    0.569082    1.882678
  O      0.000640    0.000560    3.094537
  H     -2.032628   -0.311190   -2.708332
  H     -0.611396   -0.560158   -3.724946
  H     -0.889651    1.013190   -2.937436
  H     -0.254165   -1.629428   -1.442476
  H      1.858925   -0.620832   -1.053561
  H      1.441703    0.757898   -1.965874
  H     -0.335197    1.320107   -0.472186
  H      0.232181   -1.331538    1.106005
  H     -0.140098    0.724747    3.717609

----------------------------
CARTESIAN COORDINATES (A.U.)
----------------------------
  NO LB      ZA    FRAG    MASS        X           Y           Z
   0 C     6.0000    0    12.011         -1.840562442055897         -0.131432520435574         -5.329677149635430
   1 C     6.0000    0    12.011         -0.457387376298033         -1.052684550949161         -3.051230144930387
   2 N     7.0000    0    14.007          2.121104698120673         -0.000525761825274         -2.592664036942136
   3 C     6.0000    0    12.011         -0.049427856808821          0.532062628653921         -0.795771068083312
   4 C     6.0000    0    12.011          0.143762851044711         -0.501627147501824          1.765403051253128
   5 N     7.0000    0    14.007         -0.130298251587935          1.075409131684534          3.557745476356489
   6 O     8.0000    0    15.999          0.001210031229025          0.001057982405930          5.847828103024471
   7 H     1.0000    0     1.008         -3.841110466648002         -0.588064280964962         -5.118005453353245
   8 H     1.0000    0     1.008         -1.155370726641981         -1.058545692130162         -7.039127559806736
   9 H     1.0000    0     1.008         -1.681196434556657          1.914651340453755         -5.550950241571172
  10 H     1.0000    0     1.008         -0.480302196280558         -3.079172747714167         -2.725884210393096
  11 H     1.0000    0     1.008          3.512859902574044         -1.173202708236926         -1.990941398554208
  12 H     1.0000    0     1.008          2.724424649938257          1.432218890185558         -3.714964352426900
  13 H     1.0000    0     1.008         -0.633431411780385          2.494641295983757         -0.892301972787047
  14 H     1.0000    0     1.008          0.438757744483079         -2.516241866568465          2.090045884810742
  15 H     1.0000    0     1.008         -0.264746227483677          1.369573207158996          7.025262470965593

--------------------------------
INTERNAL COORDINATES (ANGSTROEM)
--------------------------------
 C      0   0   0   0.000000     0.000     0.000
 C      1   0   0   1.492355     0.000     0.000
 N      2   1   0   1.493550   117.230     0.000
 C      2   1   3   1.474587   122.681    72.086
 C      4   2   1   1.465109   123.136   149.680
 N      5   4   2   1.271639   115.912   196.717
 O      6   5   4   1.340397   112.959   178.357
 H      1   2   3   1.091634   108.689   197.066
 H      1   2   3   1.091087   111.098    78.459
 H      1   2   3   1.092314   111.873   315.953
 H      2   1   3   1.086171   116.430   225.694
 H      3   2   1   1.014341   119.095   220.922
 H      3   2   1   1.014629   118.095     7.237
 H      4   2   1   1.084761   117.688   354.148
 H      5   4   2   1.091066   121.362    14.646
 H      7   6   5   0.965646   104.934   181.094

---------------------------
INTERNAL COORDINATES (A.U.)
---------------------------
 C      0   0   0   0.000000     0.000     0.000
 C      1   0   0   2.820142     0.000     0.000
 N      2   1   0   2.822400   117.230     0.000
 C      2   1   3   2.786566   122.681    72.086
 C      4   2   1   2.768655   123.136   149.680
 N      5   4   2   2.403049   115.912   196.717
 O      6   5   4   2.532983   112.959   178.357
 H      1   2   3   2.062889   108.689   197.066
 H      1   2   3   2.061855   111.098    78.459
 H      1   2   3   2.064175   111.873   315.953
 H      2   1   3   2.052567   116.430   225.694
 H      3   2   1   1.916827   119.095   220.922
 H      3   2   1   1.917371   118.095     7.237
 H      4   2   1   2.049901   117.688   354.148
 H      5   4   2   2.061817   121.362    14.646
 H      7   6   5   1.824806   104.934   181.094



           ************************************************************
           *        Program running with 8 parallel MPI-processes     *
           *              working on a common directory               *
           ************************************************************
           ************************************************************
           *              Shut down parallel processing               *
           ************************************************************


           ************************************************************
           *        Program running with 8 parallel MPI-processes     *
           *              working on a common directory               *
           ************************************************************

Diagonalization of the overlap matrix:
Smallest eigenvalue                        ... 8.195e-05
Time for diagonalization                   ...    0.205 sec
Threshold for overlap eigenvalues          ... 1.000e-08
Number of eigenvalues below threshold      ... 0
Time for construction of square roots      ...    0.020 sec
Total time needed                          ...    0.225 sec

-------------------
DFT GRID GENERATION
-------------------

General Integration Accuracy     IntAcc      ...  4.340
Radial Grid Type                 RadialGrid  ... Gauss-Chebyshev
Angular Grid (max. acc.)         AngularGrid ... Lebedev-194
Angular grid pruning method      GridPruning ... 3 (G Style)
Weight generation scheme         WeightScheme... Becke
Basis function cutoff            BFCut       ...    1.0000e-11
Integration weight cutoff        WCut        ...    1.0000e-14
Grids for H and He will be reduced by one unit

# of grid points (after initial pruning)     ...  36892 (   0.0 sec)
# of grid points (after weights+screening)   ...  34236 (   0.0 sec)
nearest neighbour list constructed           ...    0.0 sec
Grid point re-assignment to atoms done       ...    0.0 sec
Grid point division into batches done        ...    0.1 sec
Reduced shell lists constructed in    0.1 sec

Total number of grid points                  ...    34236
Total number of batches                      ...      543
Average number of points per batch           ...       63
Average number of grid points per atom       ...     2140
Average number of shells per batch           ...    84.57 (74.84%)
Average number of basis functions per batch  ...   203.75 (75.19%)
Average number of large shells per batch     ...    70.36 (83.20%)
Average number of large basis fcns per batch ...   170.77 (83.81%)
Maximum spatial batch extension              ...   3.76,  2.51,  2.62 au
Average spatial batch extension              ...   0.15,  0.15,  0.15 au

Time for grid setup =    0.333 sec

--------------
SCF ITERATIONS
--------------
ITER       Energy         Delta-E        Max-DP      RMS-DP      [F,P]     Damp
               ***  Starting incremental Fock matrix formation  ***
                      *** Initiating the SOSCF procedure ***
                      *** Re-Reading the Fockian *** 
                      *** Removing any level shift *** 
ITER      Energy       Delta-E        Grad      Rot      Max-DP    RMS-DP
  0   -341.97508179 -341.9750817941  0.000312  0.000312  0.000915  0.000011
               *** Restarting incremental Fock matrix formation ***
  1   -341.97508469  -0.0000028970  0.000092  0.000347  0.000339  0.000004
  2   -341.97508502  -0.0000003330  0.000020  0.000111  0.000075  0.000001
  3   -341.97508503  -0.0000000024  0.000020  0.000036  0.000023  0.000001
  4   -341.97508504  -0.0000000138  0.000008  0.000022  0.000025  0.000000
  5   -341.97508504   0.0000000001  0.000008  0.000013  0.000011  0.000000
                  ***Gradient check signals convergence***
              ***Rediagonalizing the Fockian in SOSCF/NRSCF***

               *****************************************************
               *                     SUCCESS                       *
               *           SCF CONVERGED AFTER   6 CYCLES          *
               *****************************************************

Setting up the final grid:

General Integration Accuracy     IntAcc      ...  5.010
Radial Grid Type                 RadialGrid  ... Gauss-Chebyshev
Angular Grid (max. acc.)         AngularGrid ... Lebedev-434
Angular grid pruning method      GridPruning ... 3 (G Style)
Weight generation scheme         WeightScheme... Becke
Basis function cutoff            BFCut       ...    1.0000e-11
Integration weight cutoff        WCut        ...    1.0000e-14
Grids for H and He will be reduced by one unit

# of grid points (after initial pruning)     ... 135042 (   0.0 sec)
# of grid points (after weights+screening)   ... 124033 (   0.1 sec)
nearest neighbour list constructed           ...    0.0 sec
Grid point re-assignment to atoms done       ...    0.0 sec
Grid point division into batches done        ...    0.8 sec
Reduced shell lists constructed in    1.0 sec

Total number of grid points                  ...   124033
Total number of batches                      ...     1946
Average number of points per batch           ...       63
Average number of grid points per atom       ...     7752
Average number of shells per batch           ...    84.02 (74.36%)
Average number of basis functions per batch  ...   202.94 (74.89%)
Average number of large shells per batch     ...    69.44 (82.65%)
Average number of large basis fcns per batch ...   168.50 (83.03%)
Maximum spatial batch extension              ...   3.92,  2.74,  3.21 au
Average spatial batch extension              ...   0.10,  0.10,  0.10 au

Final grid set up in    1.1 sec
Final integration                            ... done (   0.6 sec)
Change in XC energy                          ...     0.000368289
Integrated number of electrons               ...    53.999980456
Previous integrated no of electrons          ...    54.000239495
Total Energy       :         -341.97471675 Eh           -9305.60513 eV
  Last Energy change         ...   -5.7855e-10  Tolerance :   1.0000e-08
  Last MAX-Density change    ...    3.7303e-06  Tolerance :   1.0000e-07
             **** THE GBW FILE WAS UPDATED (4803_+.gbw) ****
             **** DENSITY FILE WAS UPDATED (4803_+.scfp.tmp) ****
             **** ENERGY FILE WAS UPDATED (4803_+.en.tmp) ****
Total SCF time: 0 days 0 hours 0 min 26 sec 
           ************************************************************
           *              Shut down parallel processing               *
           ************************************************************

-------------------------   --------------------
FINAL SINGLE POINT ENERGY      -341.974716751903
-------------------------   --------------------



           ************************************************************
           *        Program running with 8 parallel MPI-processes     *
           *              working on a common directory               *
           ************************************************************
------------------------------------------------------------------------------
                         ORCA SCF GRADIENT CALCULATION
------------------------------------------------------------------------------

Gradient of the Kohn-Sham DFT energy:
Kohn-Sham wavefunction type      ... RKS
Hartree-Fock exchange scaling    ...    0.250
Number of operators              ...    1
Number of atoms                  ...   16
Basis set dimensions             ...  271
Integral neglect threshold       ... 2.5e-11
Integral primitive cutoff        ... 2.5e-12

Nuclear repulsion gradient       ... done
One Electron Gradient            ... done
Pre-screening matrix             ... done
Starting the two electron gradient:
Two electron gradient done
Exchange-correlation gradient    ... done

------------------
CARTESIAN GRADIENT
------------------

   1   C   :    0.000064959    0.000014877    0.000027204
   2   C   :   -0.000032096   -0.000003805   -0.000037581
   3   N   :    0.000072226    0.000007078   -0.000075006
   4   C   :   -0.000063465   -0.000014448    0.000202253
   5   C   :   -0.000003132    0.000064735   -0.000021435
   6   N   :    0.000045030   -0.000026257   -0.000007746
   7   O   :    0.000000483   -0.000013490    0.000016816
   8   H   :   -0.000002941   -0.000018428   -0.000022489
   9   H   :   -0.000021082   -0.000002846   -0.000007627
  10   H   :   -0.000018420    0.000001905    0.000011964
  11   H   :   -0.000005478    0.000003548    0.000022835
  12   H   :   -0.000011280   -0.000004660    0.000015274
  13   H   :   -0.000010516    0.000010848    0.000017238
  14   H   :    0.000014990   -0.000004835   -0.000111713
  15   H   :   -0.000017142   -0.000012045   -0.000029411
  16   H   :   -0.000012137   -0.000002177   -0.000000576

Norm of the cartesian gradient     ...    0.000298466
RMS gradient                       ...    0.000043080
MAX gradient                       ...    0.000202253

-------
TIMINGS
-------

Total SCF gradient time            ...       23.156 sec

One electron gradient       ....       0.080 sec  (  0.3%)
Prescreening matrices       ....       0.332 sec  (  1.4%)
Two electron gradient       ....      17.849 sec  ( 77.1%)
XC gradient                 ....       2.709 sec  ( 11.7%)
           ************************************************************
           *              Shut down parallel processing               *
           ************************************************************
------------------------------------------------------------------------------
                         ORCA GEOMETRY RELAXATION STEP
------------------------------------------------------------------------------

Reading the OPT-File                    .... done
Getting information on internals        .... done
Copying old internal coords+grads       .... done
Making the new internal coordinates     .... (new redundants).... done
Validating the new internal coordinates .... (new redundants).... done
Calculating the B-matrix                .... done
Calculating the G,G- and P matrices     .... done
Transforming gradient to internals      .... done
Projecting the internal gradient        .... done
Number of atoms                         ....  16
Number of internal coordinates          ....  87
Current Energy                          ....  -341.974716752 Eh
Current gradient norm                   ....     0.000298466 Eh/bohr
Maximum allowed component of the step   ....  0.300
Current trust radius                    ....  0.300
Updating the Hessian (BFGS)             .... done
Forming the augmented Hessian           .... done
Diagonalizing the augmented Hessian     .... done
Last element of RFO vector              ....  0.999988636
Lowest eigenvalues of augmented Hessian:
 -0.000000464  0.011476239  0.015483260  0.027431453  0.034551048
Length of the computed step             ....  0.004767532
The final length of the internal step   ....  0.004767532
Converting the step to cartesian space:
 Initial RMS(Int)=    0.0005111330
Transforming coordinates:
 Iter   0:  RMS(Cart)=    0.0010407517 RMS(Int)=    0.0005111221
 Iter   1:  RMS(Cart)=    0.0000007883 RMS(Int)=    0.0000005278
 Iter   2:  RMS(Cart)=    0.0000000011 RMS(Int)=    0.0000000005
done
Storing new coordinates                 .... done

                                .--------------------.
          ----------------------|Geometry convergence|---------------------
          Item                value                 Tolerance   Converged
          -----------------------------------------------------------------
          Energy change      -0.00000053            0.00000100      YES
          RMS gradient        0.00002176            0.00003000      YES
          MAX gradient        0.00009216            0.00010000      YES
          RMS step            0.00051113            0.00060000      YES
          MAX step            0.00149442            0.00100000      NO
          ....................................................
          Max(Bonds)      0.0001      Max(Angles)    0.04
          Max(Dihed)        0.09      Max(Improp)    0.00
          -----------------------------------------------------------------

       The energies and gradients are converged
       and the convergence on bond distances, angles, dihedrals and impropers
       is acceptable.
       Convergence will therefore be signaled now


                    ***********************HURRAY********************
                    ***        THE OPTIMIZATION HAS CONVERGED     ***
                    *************************************************


    ---------------------------------------------------------------------------
                         Redundant Internal Coordinates

                          --- Optimized Parameters ---  
                            (Angstroem and degrees)

        Definition                    OldVal   dE/dq     Step     FinalVal
    ----------------------------------------------------------------------------
     1. B(C   1,C   0)                1.4924 -0.000021  0.0001    1.4924   
     2. B(N   2,C   1)                1.4935  0.000033 -0.0001    1.4935   
     3. B(C   3,C   1)                1.4746  0.000012 -0.0000    1.4745   
     4. B(C   3,N   2)                1.5175  0.000028 -0.0001    1.5174   
     5. B(C   4,C   3)                1.4651 -0.000043  0.0001    1.4652   
     6. B(N   5,C   4)                1.2716 -0.000024  0.0001    1.2717   
     7. B(O   6,N   5)                1.3404  0.000020 -0.0000    1.3404   
     8. B(H   7,C   0)                1.0916  0.000005 -0.0000    1.0916   
     9. B(H   8,C   0)                1.0911  0.000001  0.0000    1.0911   
    10. B(H   9,C   0)                1.0923 -0.000002 -0.0000    1.0923   
    11. B(H  10,C   1)                1.0862  0.000000 -0.0000    1.0861   
    12. B(H  11,N   2)                1.0143 -0.000001 -0.0000    1.0143   
    13. B(H  12,N   2)                1.0146 -0.000005 -0.0000    1.0146   
    14. B(H  13,C   3)                1.0848 -0.000004  0.0001    1.0848   
    15. B(H  14,C   4)                1.0911  0.000004  0.0000    1.0911   
    16. B(H  15,O   6)                0.9656 -0.000000  0.0000    0.9656   
    17. A(C   1,C   0,H   8)          111.10  0.000021   -0.01    111.09   
    18. A(H   8,C   0,H   9)          109.34  0.000001   -0.01    109.33   
    19. A(H   7,C   0,H   8)          107.93 -0.000026    0.02    107.94   
    20. A(H   7,C   0,H   9)          107.78 -0.000005    0.00    107.78   
    21. A(C   1,C   0,H   7)          108.69  0.000008    0.00    108.69   
    22. A(C   1,C   0,H   9)          111.87 -0.000000   -0.00    111.87   
    23. A(N   2,C   1,C   3)           61.49  0.000002   -0.00     61.49   
    24. A(C   3,C   1,H  10)          115.77 -0.000008    0.01    115.78   
    25. A(C   0,C   1,N   2)          117.23 -0.000005    0.00    117.23   
    26. A(N   2,C   1,H  10)          110.64 -0.000001   -0.00    110.64   
    27. A(C   0,C   1,H  10)          116.43  0.000007   -0.00    116.43   
    28. A(C   0,C   1,C   3)          122.68  0.000001   -0.00    122.68   
    29. A(H  11,N   2,H  12)          114.36  0.000008   -0.01    114.35   
    30. A(C   3,N   2,H  12)          117.78 -0.000002    0.01    117.79   
    31. A(C   1,N   2,H  12)          118.09  0.000002   -0.01    118.09   
    32. A(C   3,N   2,H  11)          117.81 -0.000007    0.01    117.81   
    33. A(C   1,N   2,H  11)          119.10 -0.000002   -0.00    119.09   
    34. A(C   1,N   2,C   3)           58.64 -0.000007    0.00     58.64   
    35. A(N   2,C   3,C   4)          117.23 -0.000018    0.00    117.23   
    36. A(C   1,C   3,C   4)          123.14 -0.000029    0.02    123.15   
    37. A(N   2,C   3,H  13)          111.34 -0.000041    0.03    111.37   
    38. A(C   1,C   3,H  13)          117.69 -0.000039    0.02    117.70   
    39. A(C   4,C   3,H  13)          114.89  0.000074   -0.04    114.85   
    40. A(C   1,C   3,N   2)           59.87  0.000005    0.00     59.87   
    41. A(N   5,C   4,H  14)          122.69 -0.000014    0.00    122.69   
    42. A(C   3,C   4,H  14)          121.36 -0.000078    0.02    121.39   
    43. A(C   3,C   4,N   5)          115.91  0.000092   -0.03    115.89   
    44. A(C   4,N   5,O   6)          112.96 -0.000011    0.00    112.96   
    45. A(N   5,O   6,H  15)          104.93 -0.000001    0.00    104.93   
    46. D(N   2,C   1,C   0,H   9)    -44.05 -0.000013    0.06    -43.99   
    47. D(H  10,C   1,C   0,H   8)    -55.85  0.000002    0.05    -55.80   
    48. D(H  10,C   1,C   0,H   9)   -178.35 -0.000014    0.06   -178.29   
    49. D(N   2,C   1,C   0,H   7)   -162.93 -0.000011    0.06   -162.88   
    50. D(C   3,C   1,C   0,H   7)    -90.85 -0.000011    0.05    -90.79   
    51. D(H  10,C   1,C   0,H   7)     62.76 -0.000013    0.06     62.82   
    52. D(C   3,C   1,C   0,H   9)     28.04 -0.000013    0.06     28.09   
    53. D(C   3,C   1,C   0,H   8)    150.55  0.000004    0.04    150.58   
    54. D(N   2,C   1,C   0,H   8)     78.46  0.000004    0.04     78.50   
    55. D(C   3,N   2,C   1,H  10)   -108.92  0.000008   -0.01   -108.92   
    56. D(H  11,N   2,C   1,C   0)   -139.08 -0.000007    0.01   -139.07   
    57. D(H  11,N   2,C   1,H  10)     -2.30 -0.000002    0.00     -2.29   
    58. D(H  12,N   2,C   1,C   0)      7.24  0.000010   -0.02      7.22   
    59. D(C   3,N   2,C   1,C   0)    114.30  0.000003   -0.00    114.30   
    60. D(H  11,N   2,C   1,C   3)    106.62 -0.000010    0.01    106.63   
    61. D(H  12,N   2,C   1,H  10)    144.02  0.000015   -0.02    143.99   
    62. D(H  12,N   2,C   1,C   3)   -107.07  0.000007   -0.02   -107.08   
    63. D(C   4,C   3,N   2,H  12)   -138.07 -0.000024    0.01   -138.06   
    64. D(C   4,C   3,N   2,H  11)      5.53 -0.000023    0.02      5.56   
    65. D(C   4,C   3,N   2,C   1)    114.34 -0.000025    0.02    114.36   
    66. D(C   1,C   3,N   2,H  11)   -108.81  0.000002    0.00   -108.80   
    67. D(H  13,C   3,C   1,H  10)   -159.62 -0.000025    0.02   -159.60   
    68. D(H  13,C   3,C   1,N   2)     99.83 -0.000029    0.03     99.85   
    69. D(H  13,C   3,C   1,C   0)     -5.85 -0.000023    0.03     -5.83   
    70. D(C   4,C   3,C   1,H  10)     -4.09  0.000011   -0.00     -4.09   
    71. D(C   1,C   3,N   2,H  12)    107.59  0.000001   -0.01    107.58   
    72. D(C   4,C   3,C   1,N   2)   -104.64  0.000007    0.00   -104.64   
    73. D(C   4,C   3,C   1,C   0)    149.68  0.000013    0.00    149.68   
    74. D(N   2,C   3,C   1,H  10)    100.56  0.000003   -0.01    100.55   
    75. D(H  13,C   3,N   2,C   1)   -110.49  0.000025   -0.01   -110.49   
    76. D(N   2,C   3,C   1,C   0)   -105.68  0.000006   -0.00   -105.68   
    77. D(H  13,C   3,N   2,H  12)     -2.90  0.000026   -0.02     -2.92   
    78. D(H  13,C   3,N   2,H  11)    140.70  0.000027   -0.00    140.70   
    79. D(H  14,C   4,C   3,N   2)    -55.58 -0.000009    0.08    -55.50   
    80. D(H  14,C   4,C   3,C   1)     14.65 -0.000021    0.09     14.73   
    81. D(N   5,C   4,C   3,H  13)     -7.13 -0.000007    0.07     -7.06   
    82. D(N   5,C   4,C   3,N   2)    126.49 -0.000006    0.08    126.57   
    83. D(H  14,C   4,C   3,H  13)    170.80 -0.000010    0.07    170.87   
    84. D(N   5,C   4,C   3,C   1)   -163.28 -0.000018    0.09   -163.20   
    85. D(O   6,N   5,C   4,H  14)      0.46 -0.000010    0.03      0.48   
    86. D(O   6,N   5,C   4,C   3)    178.36 -0.000015    0.03    178.38   
    87. D(H  15,O   6,N   5,C   4)   -178.91  0.000020    0.01   -178.89   
    ----------------------------------------------------------------------------
                 *******************************************************
                 *** FINAL ENERGY EVALUATION AT THE STATIONARY POINT ***
                 ***               (AFTER    2 CYCLES)               ***
                 *******************************************************


           ************************************************************
           *        Program running with 8 parallel MPI-processes     *
           *              working on a common directory               *
           ************************************************************
           ************************************************************
           *              Shut down parallel processing               *
           ************************************************************


           ************************************************************
           *        Program running with 8 parallel MPI-processes     *
           *              working on a common directory               *
           ************************************************************
------------
SCF SETTINGS
------------
Hamiltonian:
 Density Functional     Method          .... DFT(GTOs)
 Exchange Functional    Exchange        .... PBE
   PBE kappa parameter  XKappa          ....  0.804000
 Correlation Functional Correlation     .... PBE
 LDA part of GGA corr.  LDAOpt          .... PW91-LDA
 Gradients option       PostSCFGGA      .... off
 Hybrid DFT is turned on
   Fraction HF Exchange ScalHFX         ....  0.250000
   Scaling of DF-GGA-X  ScalDFX         ....  0.750000
   Scaling of DF-GGA-C  ScalDFC         ....  1.000000
   Scaling of DF-LDA-C  ScalLDAC        ....  1.000000
   Perturbative correction              ....  0.000000
   NL short-range parameter             ....  6.900000


General Settings:
 Integral files         IntName         .... 4803_+
 Hartree-Fock type      HFTyp           .... RHF
 Total Charge           Charge          ....    1
 Multiplicity           Mult            ....    1
 Number of Electrons    NEL             ....   54
 Basis Dimension        Dim             ....  271
 Nuclear Repulsion      ENuc            ....    303.3333188324 Eh

Convergence Acceleration:
 DIIS                   CNVDIIS         .... on
   Start iteration      DIISMaxIt       ....    12
   Startup error        DIISStart       ....  0.200000
   # of expansion vecs  DIISMaxEq       ....     5
   Bias factor          DIISBfac        ....   1.050
   Max. coefficient     DIISMaxC        ....  10.000
 Newton-Raphson         CNVNR           .... off
 SOSCF                  CNVSOSCF        .... on
   Start iteration      SOSCFMaxIt      ....   150
   Startup grad/error   SOSCFStart      ....  0.003300
 Level Shifting         CNVShift        .... on
   Level shift para.    LevelShift      ....    0.2500
   Turn off err/grad.   ShiftErr        ....    0.0010
 Zerner damping         CNVZerner       .... off
 Static damping         CNVDamp         .... on
   Fraction old density DampFac         ....    0.7000
   Max. Damping (<1)    DampMax         ....    0.9800
   Min. Damping (>=0)   DampMin         ....    0.0000
   Turn off err/grad.   DampErr         ....    0.1000
 Fernandez-Rico         CNVRico         .... off

SCF Procedure:
 Maximum # iterations   MaxIter         ....   125
 SCF integral mode      SCFMode         .... Direct
   Integral package                     .... LIBINT
 Reset frequeny         DirectResetFreq ....    20
 Integral Threshold     Thresh          ....  2.500e-11 Eh
 Primitive CutOff       TCut            ....  2.500e-12 Eh

Convergence Tolerance:
 Convergence Check Mode ConvCheckMode   .... Total+1el-Energy
 Energy Change          TolE            ....  1.000e-08 Eh
 1-El. energy change                    ....  1.000e-05 Eh
 Orbital Gradient       TolG            ....  1.000e-05
 Orbital Rotation angle TolX            ....  1.000e-05
 DIIS Error             TolErr          ....  5.000e-07


Diagonalization of the overlap matrix:
Smallest eigenvalue                        ... 8.199e-05
Time for diagonalization                   ...    0.019 sec
Threshold for overlap eigenvalues          ... 1.000e-08
Number of eigenvalues below threshold      ... 0
Time for construction of square roots      ...    0.008 sec
Total time needed                          ...    0.027 sec

-------------------
DFT GRID GENERATION
-------------------

General Integration Accuracy     IntAcc      ...  4.340
Radial Grid Type                 RadialGrid  ... Gauss-Chebyshev
Angular Grid (max. acc.)         AngularGrid ... Lebedev-194
Angular grid pruning method      GridPruning ... 3 (G Style)
Weight generation scheme         WeightScheme... Becke
Basis function cutoff            BFCut       ...    1.0000e-11
Integration weight cutoff        WCut        ...    1.0000e-14
Grids for H and He will be reduced by one unit

# of grid points (after initial pruning)     ...  36892 (   0.0 sec)
# of grid points (after weights+screening)   ...  34238 (   0.0 sec)
nearest neighbour list constructed           ...    0.0 sec
Grid point re-assignment to atoms done       ...    0.0 sec
Grid point division into batches done        ...    0.1 sec
Reduced shell lists constructed in    0.1 sec

Total number of grid points                  ...    34238
Total number of batches                      ...      543
Average number of points per batch           ...       63
Average number of grid points per atom       ...     2140
Average number of shells per batch           ...    84.57 (74.84%)
Average number of basis functions per batch  ...   203.78 (75.20%)
Average number of large shells per batch     ...    70.36 (83.20%)
Average number of large basis fcns per batch ...   170.77 (83.80%)
Maximum spatial batch extension              ...   3.76,  2.51,  2.62 au
Average spatial batch extension              ...   0.15,  0.15,  0.15 au

Time for grid setup =    0.155 sec

--------------
SCF ITERATIONS
--------------
ITER       Energy         Delta-E        Max-DP      RMS-DP      [F,P]     Damp
               ***  Starting incremental Fock matrix formation  ***
                      *** Initiating the SOSCF procedure ***
                      *** Re-Reading the Fockian *** 
                      *** Removing any level shift *** 
ITER      Energy       Delta-E        Grad      Rot      Max-DP    RMS-DP
  0   -341.97508331 -341.9750833094  0.000171  0.000171  0.000469  0.000008
               *** Restarting incremental Fock matrix formation ***
  1   -341.97508526  -0.0000019549  0.000104  0.000392  0.000145  0.000003
  2   -341.97508556  -0.0000002922  0.000021  0.000114  0.000038  0.000001
  3   -341.97508556  -0.0000000079  0.000018  0.000036  0.000024  0.000000
  4   -341.97508557  -0.0000000059  0.000011  0.000021  0.000019  0.000000
  5   -341.97508557  -0.0000000011  0.000005  0.000010  0.000008  0.000000
                  ***Gradient check signals convergence***
              ***Rediagonalizing the Fockian in SOSCF/NRSCF***

               *****************************************************
               *                     SUCCESS                       *
               *           SCF CONVERGED AFTER   6 CYCLES          *
               *****************************************************

Setting up the final grid:

General Integration Accuracy     IntAcc      ...  5.010
Radial Grid Type                 RadialGrid  ... Gauss-Chebyshev
Angular Grid (max. acc.)         AngularGrid ... Lebedev-434
Angular grid pruning method      GridPruning ... 3 (G Style)
Weight generation scheme         WeightScheme... Becke
Basis function cutoff            BFCut       ...    1.0000e-11
Integration weight cutoff        WCut        ...    1.0000e-14
Grids for H and He will be reduced by one unit

# of grid points (after initial pruning)     ... 135042 (   0.0 sec)
# of grid points (after weights+screening)   ... 124030 (   0.1 sec)
nearest neighbour list constructed           ...    0.0 sec
Grid point re-assignment to atoms done       ...    0.0 sec
Grid point division into batches done        ...    0.8 sec
Reduced shell lists constructed in    1.0 sec

Total number of grid points                  ...   124030
Total number of batches                      ...     1946
Average number of points per batch           ...       63
Average number of grid points per atom       ...     7752
Average number of shells per batch           ...    83.99 (74.33%)
Average number of basis functions per batch  ...   202.81 (74.84%)
Average number of large shells per batch     ...    69.42 (82.65%)
Average number of large basis fcns per batch ...   168.47 (83.07%)
Maximum spatial batch extension              ...   2.26,  2.74,  3.21 au
Average spatial batch extension              ...   0.10,  0.10,  0.10 au

Final grid set up in    1.1 sec
Final integration                            ... done (   0.6 sec)
Change in XC energy                          ...     0.000368522
Integrated number of electrons               ...    53.999980605
Previous integrated no of electrons          ...    54.000241988
Total Energy       :         -341.97471705 Eh           -9305.60514 eV
  Last Energy change         ...    5.1517e-10  Tolerance :   1.0000e-08
  Last MAX-Density change    ...    3.5760e-06  Tolerance :   1.0000e-07
             **** THE GBW FILE WAS UPDATED (4803_+.gbw) ****
             **** DENSITY FILE WAS UPDATED (4803_+.scfp.tmp) ****
             **** ENERGY FILE WAS UPDATED (4803_+.en.tmp) ****
Total SCF time: 0 days 0 hours 0 min 25 sec 
           ************************************************************
           *              Shut down parallel processing               *
           ************************************************************

-------------------------   --------------------
FINAL SINGLE POINT ENERGY      -341.974717048451
-------------------------   --------------------

                                *** OPTIMIZATION RUN DONE ***

                            ***************************************
                            *     ORCA property calculations      *
                            ***************************************

                                    ---------------------
                                    Active property flags
                                    ---------------------




           ************************************************************
           *        Program running with 8 parallel MPI-processes     *
           *              working on a common directory               *
           ************************************************************

-------------------------------------------------------------------------------
                               ORCA SCF HESSIAN
-------------------------------------------------------------------------------

Hessian of the Kohn-Sham DFT energy:
Kohn-Sham wavefunction type                      ... RKS
Hartree-Fock exchange scaling                    ...    0.250
Number of operators                              ...    1
Number of atoms                                  ...   16
Basis set dimensions                             ...  271
Integral neglect threshold                       ... 2.5e-11
Integral primitive cutoff                        ... 2.5e-12

Setting up DFT Hessian calculations              ... 
Electron density on the grid                     ... found on disk
Electron density on the final grid               ... found on disk
Building xc-kernel on the grid                   ... done   (      0.0 sec)
Building xc-kernel on the final grid             ... done   (      0.1 sec)
                                                     done   (      1.2 sec)

Nuclear repulsion Hessian                        ... done   (      0.0 sec)

----------------------------------------------
Forming right-hand sides of CP-SCF equations     ...
----------------------------------------------
One electron integral derivatives                ... done   (      0.3 sec)
Transforming the overlap derivative matrices     ... done   (      0.2 sec)
Making the Q(x) pseudodensities                  ... done   (      0.1 sec)
Adding the E*S(x)*S(y) terms to the Hessian      ... done   (      0.0 sec)
Calculating energy weighted overlap derivatives  ... done   (      0.0 sec)
Two electron integral derivatives                ... done   (     30.9 sec)
Exchange-correlation integral derivatives        ... done   (     33.8 sec)
tr(F(y)Q(x)) contribution to the Hessian         ... done   (      0.0 sec)
Response fock operator R(S(x))                   ... done   (     87.8 sec)
XC Response fock operator R(S(x))                ... done   (     14.3 sec)
tr(F(y)S(x)) contribution to the Hessian         ... done   (      0.0 sec)
Transforming and finalizing RHSs                 ... done   (      0.1 sec)

----------------------------------------------
Solving the CP-SCF equations                     ...
----------------------------------------------
     CP-SCF ITERATION   0: 
     CP-SCF ITERATION   1:      0.001524094
     CP-SCF ITERATION   2:      0.000138831
     CP-SCF ITERATION   3:      0.000013545
     CP-SCF ITERATION   4:      0.000001915
     CP-SCF ITERATION   5:      0.000000083
     CP-SCF ITERATION   6:      0.000000007

                                                 ... done   (    822.0 sec)
Forming perturbed density Hessian contributions  ... done   (      0.0 sec)
Making the perturbed densities                   ... done   (      0.0 sec)
2nd integral derivative contribs                 ... done   (    202.6 sec)
Exchange-correlation Hessian                     ... done   (     20.3 sec)
Dipol derivatives                                ... done   (     12.2 sec)

Total SCF Hessian time: 0 days 0 hours 20 min 27 sec 

Writing the Hessian file to the disk             ... done

           ************************************************************
           *              Shut down parallel processing               *
           ************************************************************

-----------------------
VIBRATIONAL FREQUENCIES
-----------------------

   0:         0.00 cm**-1
   1:         0.00 cm**-1
   2:         0.00 cm**-1
   3:         0.00 cm**-1
   4:         0.00 cm**-1
   5:         0.00 cm**-1
   6:        87.43 cm**-1
   7:       153.22 cm**-1
   8:       190.11 cm**-1
   9:       223.96 cm**-1
  10:       308.87 cm**-1
  11:       363.50 cm**-1
  12:       405.81 cm**-1
  13:       472.54 cm**-1
  14:       556.98 cm**-1
  15:       563.52 cm**-1
  16:       724.73 cm**-1
  17:       861.16 cm**-1
  18:       875.71 cm**-1
  19:       916.39 cm**-1
  20:       953.69 cm**-1
  21:       959.97 cm**-1
  22:       996.07 cm**-1
  23:      1054.58 cm**-1
  24:      1116.39 cm**-1
  25:      1146.54 cm**-1
  26:      1171.50 cm**-1
  27:      1221.91 cm**-1
  28:      1230.75 cm**-1
  29:      1262.40 cm**-1
  30:      1287.92 cm**-1
  31:      1343.88 cm**-1
  32:      1417.71 cm**-1
  33:      1440.72 cm**-1
  34:      1473.61 cm**-1
  35:      1483.90 cm**-1
  36:      1507.81 cm**-1
  37:      1622.63 cm**-1
  38:      1717.47 cm**-1
  39:      3064.04 cm**-1
  40:      3128.60 cm**-1
  41:      3144.41 cm**-1
  42:      3153.03 cm**-1
  43:      3181.63 cm**-1
  44:      3202.44 cm**-1
  45:      3505.53 cm**-1
  46:      3617.08 cm**-1
  47:      3808.86 cm**-1


------------
NORMAL MODES
------------

These modes are the cartesian displacements weighted by the diagonal matrix
M(i,i)=1/sqrt(m[i]) where m[i] is the mass of the displaced atom
Thus, these vectors are normalized but *not* orthogonal

                  0          1          2          3          4          5    
      0       0.000000   0.000000   0.000000   0.000000   0.000000   0.000000
      1       0.000000   0.000000   0.000000   0.000000   0.000000   0.000000
      2       0.000000   0.000000   0.000000   0.000000   0.000000   0.000000
      3       0.000000   0.000000   0.000000   0.000000   0.000000   0.000000
      4       0.000000   0.000000   0.000000   0.000000   0.000000   0.000000
      5       0.000000   0.000000   0.000000   0.000000   0.000000   0.000000
      6       0.000000   0.000000   0.000000   0.000000   0.000000   0.000000
      7       0.000000   0.000000   0.000000   0.000000   0.000000   0.000000
      8       0.000000   0.000000   0.000000   0.000000   0.000000   0.000000
      9       0.000000   0.000000   0.000000   0.000000   0.000000   0.000000
     10       0.000000   0.000000   0.000000   0.000000   0.000000   0.000000
     11       0.000000   0.000000   0.000000   0.000000   0.000000   0.000000
     12       0.000000   0.000000   0.000000   0.000000   0.000000   0.000000
     13       0.000000   0.000000   0.000000   0.000000   0.000000   0.000000
     14       0.000000   0.000000   0.000000   0.000000   0.000000   0.000000
     15       0.000000   0.000000   0.000000   0.000000   0.000000   0.000000
     16       0.000000   0.000000   0.000000   0.000000   0.000000   0.000000
     17       0.000000   0.000000   0.000000   0.000000   0.000000   0.000000
     18       0.000000   0.000000   0.000000   0.000000   0.000000   0.000000
     19       0.000000   0.000000   0.000000   0.000000   0.000000   0.000000
[...]
      8       0.005492   0.018259   0.000661   0.000647  -0.001412  -0.000679
      9       0.003181   0.003650  -0.000743   0.001113   0.001107  -0.003210
     10       0.041417   0.023159  -0.006109   0.002575  -0.008205   0.006716
     11      -0.021992  -0.114394  -0.045018   0.058793   0.007420  -0.054520
     12      -0.014518   0.009912   0.001962  -0.000391  -0.000016   0.000910
     13       0.080494  -0.042564  -0.007510   0.010402   0.003051  -0.011397
     14      -0.032784  -0.005022  -0.031490   0.084146  -0.018349   0.064712
     15       0.014156  -0.001840   0.001675  -0.005386   0.000976  -0.004273
     16      -0.088167   0.015945  -0.007838   0.030035  -0.005815   0.026027
     17      -0.003790   0.049396   0.012021  -0.006740  -0.001749   0.015857
     18       0.003495  -0.006705  -0.003828   0.008674  -0.001242   0.004397
     19      -0.018420   0.039300   0.020617  -0.048647   0.006627  -0.024970
     20      -0.000203  -0.022167  -0.000983  -0.004517   0.002717  -0.010806
     21       0.001269   0.033300  -0.085956   0.026492   0.098934  -0.046900
     22      -0.005798  -0.081610   0.300049  -0.098581  -0.500661   0.314231
     23      -0.003755   0.025884  -0.512497  -0.367487   0.028908   0.354849
     24       0.004811   0.033707  -0.383793  -0.346311  -0.166113   0.419091
     25      -0.018161  -0.120423   0.216353  -0.090431   0.414309   0.425411
     26       0.017150   0.111926  -0.242082  -0.030935  -0.256154  -0.058019
     27      -0.005363  -0.015044  -0.376104  -0.071194   0.559381  -0.147240
     28       0.003698   0.033997  -0.048074  -0.000959  -0.086591  -0.061969
     29      -0.003813  -0.015267  -0.321251  -0.053557  -0.367644  -0.450377
     30       0.162627   0.568332  -0.091133   0.271727   0.053516   0.046171
     31      -0.015292   0.059450  -0.006139   0.077247   0.009436  -0.020724
     32      -0.061974   0.306337  -0.141964   0.330658  -0.018308   0.030895
     33       0.052963   0.086216  -0.053985   0.107430   0.007498  -0.017752
     34      -0.017821  -0.000683  -0.046026   0.100787   0.014224  -0.032552
     35      -0.064060  -0.059970   0.024915   0.018123   0.006972  -0.012081
     36      -0.065634  -0.128429  -0.064535   0.045849   0.000094  -0.020196
     37       0.023371  -0.005888   0.041352  -0.069582  -0.011759   0.018883
     38       0.034249   0.016571   0.026629  -0.057218  -0.012906   0.016171
     39      -0.174996  -0.231313   0.007085  -0.052669   0.012702  -0.015168
     40       0.013895  -0.007870   0.002377  -0.021537  -0.008051   0.016345
     41       0.299875   0.477148   0.099910  -0.084279  -0.025798   0.148333
     42      -0.045496  -0.000076   0.000622   0.001507  -0.002221   0.009451
     43       0.207574  -0.064585   0.011965  -0.048535   0.013843  -0.053934
     44       0.751052  -0.084498   0.102592  -0.297697   0.047105  -0.188409
     45      -0.041666   0.037439   0.020655  -0.051461   0.007135  -0.027757
     46       0.278467  -0.269543  -0.142227   0.346430  -0.048756   0.187274
     47      -0.356040   0.344443   0.193804  -0.476943   0.069458  -0.265573
                 36         37         38         39         40         41    
      0      -0.023601  -0.000947  -0.000727   0.022729   0.000519   0.040604
      1       0.023670   0.003429   0.001877  -0.023998   0.001395   0.080391
      2      -0.039775   0.004702  -0.002485   0.039136   0.000562   0.011335
      3       0.083372  -0.012645  -0.006749  -0.000537  -0.000093   0.000878
      4       0.033131  -0.016360  -0.010428   0.001667  -0.000963  -0.017456
      5       0.139065  -0.041482   0.000839  -0.001314  -0.000010   0.003474
      6      -0.011294   0.081217  -0.005059  -0.000413  -0.000194  -0.000303
      7      -0.004408   0.012115   0.000578  -0.000181   0.000288   0.000227
      8       0.001289  -0.018941   0.013058  -0.000038  -0.000318  -0.000654
      9      -0.004280   0.008564   0.004425  -0.000294   0.000937  -0.000212
     10      -0.003987   0.014596   0.023646   0.000169  -0.003879   0.000111
     11      -0.180480   0.039307   0.054733  -0.000349   0.003146   0.000069
     12       0.003384  -0.001645   0.051572   0.000074  -0.012940   0.000225
     13      -0.031414   0.000549  -0.275031  -0.000175   0.085247  -0.001772
     14       0.106634  -0.004295  -0.394724   0.000118  -0.011812   0.000323
     15      -0.007054  -0.000074  -0.046433   0.000019   0.000418  -0.000008
     16       0.043830  -0.000546   0.248747  -0.000017  -0.001766   0.000040
     17       0.040227  -0.006157   0.331605   0.000011  -0.003246   0.000020
     18       0.005781   0.000186   0.006683  -0.000006   0.000036   0.000005
     19      -0.033777  -0.000132  -0.033528   0.000004  -0.000200  -0.000007
     20      -0.021663   0.002174  -0.024103   0.000000  -0.000050   0.000000
     21       0.019253   0.005948   0.000885  -0.503455  -0.008751  -0.556579
     22      -0.251841  -0.020387  -0.003080  -0.119341  -0.001505  -0.111587
     23      -0.199635   0.016625   0.008365   0.058651   0.001112   0.063387
     24      -0.259994   0.021233   0.004950   0.184491   0.003939   0.122636
     25      -0.170095  -0.014003  -0.012910  -0.250182  -0.005054  -0.138112
     26      -0.034321   0.021646   0.006813  -0.445804  -0.010573  -0.277940
     27       0.206996   0.016295  -0.001749   0.055435  -0.000806  -0.053546
     28       0.030209   0.004112   0.003858   0.650672  -0.011518  -0.707480
     29       0.251864  -0.003521   0.008977  -0.064233   0.001674   0.074414
     30      -0.180563   0.017267   0.015021   0.000618  -0.000167   0.003853
     31      -0.033692  -0.001908  -0.010507  -0.014879   0.012208   0.208641
     32      -0.311375   0.061094  -0.011970   0.002920  -0.004563  -0.030191
     33      -0.133216  -0.452546   0.006209   0.001284   0.005105  -0.000947
     34      -0.134134  -0.398752  -0.000321   0.000292  -0.001414  -0.002075
     35       0.013527   0.360376  -0.023093   0.000071  -0.000625   0.000214
     36      -0.160475  -0.646710   0.004984   0.004066   0.001309  -0.003155
     37       0.100260   0.246954   0.002530   0.002103  -0.000002  -0.001774
     38       0.063580  -0.081321   0.023832  -0.000193  -0.001962   0.001920
     39      -0.013697  -0.017863   0.012990   0.001890  -0.008095   0.000358
     40       0.027325   0.002793   0.009541  -0.002877   0.028286  -0.001132
     41       0.327675  -0.051809  -0.197841   0.001861   0.002961  -0.000713
     42       0.022233   0.004454   0.038377  -0.000538   0.142145  -0.002824
     43      -0.097534   0.001027  -0.199554   0.003066  -0.972705   0.019771
     44      -0.269091   0.003750   0.341977  -0.000837   0.156748  -0.003376
     45      -0.038852   0.000929  -0.050347  -0.000038  -0.000420   0.000013
     46       0.262810  -0.004875   0.375354  -0.000028   0.000717   0.000046
     47      -0.378474   0.008502  -0.493028   0.000023   0.002210  -0.000046
                 42         43         44         45         46         47    
      0       0.069410   0.004135   0.000412  -0.000493  -0.000216  -0.000016
      1      -0.027015   0.018434   0.003057  -0.000449   0.000216   0.000034
      2      -0.055307   0.006541   0.000966   0.000241  -0.000062   0.000015
      3       0.001356   0.001578  -0.000382   0.000026  -0.000346  -0.000011
      4       0.005394   0.082894   0.012709  -0.000858  -0.000325  -0.000076
      5      -0.001303  -0.012922  -0.003302  -0.001287  -0.000305  -0.000046
      6      -0.000798  -0.001045   0.001205   0.051176   0.022272  -0.000335
      7      -0.000071  -0.001440  -0.001574   0.007973  -0.070300  -0.000157
      8      -0.000309   0.001104   0.000621  -0.013946   0.046391   0.000309
      9       0.000364   0.004590  -0.024655   0.000594   0.000096   0.000150
     10       0.000027  -0.014967   0.081838   0.001192   0.000062   0.000309
     11       0.000669  -0.000459  -0.005394   0.000721  -0.000464  -0.000399
     12      -0.000063   0.000179  -0.000065  -0.000350   0.000273  -0.000010
     13       0.000563   0.000203   0.002137   0.000651   0.000348   0.000111
     14      -0.000123  -0.000542   0.001122   0.000153  -0.000094   0.001493
     15      -0.000005   0.000002  -0.000049  -0.000078  -0.000025   0.000084
     16      -0.000009  -0.000039   0.000036  -0.000105  -0.000091  -0.000586
     17       0.000023   0.000061   0.000121  -0.000247   0.000005  -0.000321
     18      -0.000005  -0.000016   0.000048   0.000121  -0.000003   0.009228
     19       0.000016   0.000038  -0.000067  -0.000280   0.000072  -0.046942
     20      -0.000004   0.000034  -0.000123   0.000086   0.000037  -0.041386
     21      -0.608027  -0.070047  -0.010269  -0.000646  -0.000636  -0.000061
     22      -0.147968  -0.012051  -0.002130   0.001254  -0.000176  -0.000053
     23       0.055160   0.005751   0.001012  -0.001756   0.000074   0.000025
     24      -0.246998   0.036536   0.005661   0.001107  -0.000069   0.000083
     25       0.345874  -0.047580  -0.007831  -0.001326   0.000648  -0.000091
     26       0.628739  -0.093472  -0.013217  -0.000832   0.000366   0.000263
     27       0.023462  -0.011867  -0.000781   0.000382  -0.000321  -0.000027
     28       0.124256  -0.168920  -0.030654   0.002880  -0.001902   0.000039
     29      -0.022210   0.021747   0.006055   0.001132  -0.000958  -0.000022
     30      -0.002498  -0.007635  -0.000036  -0.004795   0.002923   0.000073
     31      -0.064321  -0.945613  -0.163264   0.000013   0.009426  -0.000222
     32       0.010344   0.153621   0.020069  -0.001348  -0.001518   0.000001
     33      -0.001757  -0.002894   0.001530  -0.492307  -0.515575   0.001613
     34       0.000257   0.008089  -0.000603   0.434178   0.442870  -0.001278
     35      -0.000626   0.001274  -0.006081  -0.225402  -0.227743   0.000295
     36      -0.000594  -0.003996   0.000112  -0.210150   0.211846   0.000895
     37      -0.001392  -0.000714   0.009175  -0.542895   0.519539   0.003062
     38      -0.000600  -0.006426  -0.002067   0.420028  -0.404500  -0.001536
     39      -0.000022  -0.050700   0.277091  -0.002460  -0.004879  -0.000193
     40       0.000637   0.158101  -0.939618  -0.004851   0.005902   0.000144
     41       0.000339  -0.013687   0.056526   0.003208   0.000875   0.000086
     42       0.000845   0.000478   0.004304   0.000112  -0.000250  -0.000027
     43      -0.005786  -0.002665  -0.031281  -0.003583  -0.002046   0.002193
     44       0.000948   0.002318   0.008715   0.000272  -0.000147   0.000036
     45       0.000023  -0.000026  -0.000257  -0.000567   0.000163  -0.146671
     46      -0.000115  -0.000173   0.000162   0.003051  -0.000841   0.747089
     47      -0.000030   0.000116  -0.000632   0.002625  -0.000705   0.645228


-----------
IR SPECTRUM
-----------

 Mode    freq (cm**-1)   T**2         TX         TY         TZ
-------------------------------------------------------------------
   6:        87.43    1.697555  (  0.023689  -0.533758  -1.188316)
   7:       153.22    0.315723  (  0.000032   0.320192   0.461736)
   8:       190.11    1.200700  (  0.177315   0.872615   0.638594)
   9:       223.96    1.505749  (  0.005346   0.996067   0.716639)
  10:       308.87    3.412164  ( -0.835669   0.865651  -1.401596)
  11:       363.50    0.904832  ( -0.738037  -0.599963   0.013360)
  12:       405.81    7.201319  (  0.974407  -0.937540  -2.317945)
  13:       472.54    1.170463  (  0.988467  -0.289431  -0.331097)
  14:       556.98  126.832625  (-10.943267  -2.614291   0.492963)
  15:       563.52   26.796171  (  4.579936  -1.045164   2.174395)
  16:       724.73   47.039114  ( -1.518620  -0.906263   6.626583)
  17:       861.16   19.423382  ( -3.983550   0.053651   1.884631)
  18:       875.71   18.515211  ( -2.539166  -0.463341   3.442842)
  19:       916.39    5.644119  ( -1.285729  -1.997751  -0.003664)
  20:       953.69    9.578009  ( -2.320720   1.593856  -1.285259)
  21:       959.97   42.977803  (  2.962325  -2.681678  -5.197214)
  22:       996.07   81.907967  ( -3.394190  -4.443340  -7.116472)
  23:      1054.58   23.362513  (  2.879262   1.851551   3.412349)
  24:      1116.39  128.540476  (  2.433049  -1.344260 -10.991529)
  25:      1146.54   38.372167  ( -0.084981  -0.426694  -6.179229)
  26:      1171.50   27.715732  (  0.145061   0.556070   5.233113)
  27:      1221.91   15.912656  (  0.097740   1.660766   3.625598)
  28:      1230.75    4.298360  (  0.852477   0.021752   1.889754)
  29:      1262.40    3.178524  ( -0.054596   1.777055  -0.132738)
  30:      1287.92   36.393049  ( -0.381428   2.631663  -5.414971)
  31:      1343.88   16.424315  ( -0.495317  -1.181490   3.844874)
  32:      1417.71    6.292130  ( -1.368188   1.012122   1.842769)
  33:      1440.72   62.143502  ( -2.083033   1.410018  -7.471032)
  34:      1473.61    6.550153  (  2.177153  -1.216176  -0.575391)
  35:      1483.90   29.756883  (  1.379179   4.045137  -3.389928)
  36:      1507.81   15.948947  (  0.228710  -1.230316  -3.792487)
  37:      1622.63   69.023741  ( -7.934492  -1.011289   2.246080)
  38:      1717.47   43.259223  ( -0.596078   0.701809   6.512402)
  39:      3064.04    1.693248  ( -0.925961  -0.913828  -0.027612)
  40:      3128.60    0.620245  ( -0.210972   0.697792  -0.298029)
  41:      3144.41    1.521364  ( -0.144524   1.186637   0.303925)
  42:      3153.03    1.109631  ( -0.641430  -0.411223  -0.727389)
  43:      3181.63    0.663358  ( -0.690728  -0.103164  -0.419058)
  44:      3202.44    5.822735  (  0.598851  -2.047602  -1.127580)
  45:      3505.53  106.562687  ( -9.490937  -1.004233   3.933995)
  46:      3617.08  114.623550  ( -2.878801   8.366558  -6.027998)
  47:      3808.86  239.162653  ( -1.607111   7.442104  13.460867)

The first frequency considered to be a vibration is 6
The total number of vibrations considered is 42


--------------------------
THERMOCHEMISTRY AT 298.15K
--------------------------

Temperature         ... 298.15 K
Pressure            ... 1.00 atm
Total Mass          ... 101.13 AMU

Throughout the following assumptions are being made:
  (1) The electronic state is orbitally nondegenerate
  (2) There are no thermally accessible electronically excited states
  (3) Hindered rotations indicated by low frequency modes) are not
      treated as such but are treated as vibrations and this may
      case some error
  (4) All equations used are the standard statistical mechanics
      equations for an ideal gas
  (5) All vibrations are strinctly harmonic


------------
INNER ENERGY
------------

The inner energy is: U= E(el) + E(ZPE) + E(vib) + E(rot) + E(trans)
    E(el)   - is the total energy from the electronic structure calculation
              = E(kin-el) + E(nuc-el) + E(el-el) + E(nuc-nuc)
    E(ZPE)  - the the zero temperature vibrational energy from the frequency calculation
    E(vib)  - the the finite temperature correction to E(ZPE) due to population
              of excietd vibrational states
    E(rot)  - is the rotational thermal energy
    E(trans)- is the translational thermal energy

Summary of contributions to the inner energy U:
Electronic energy                ...   -341.97471705 Eh
Zero point energy                ...      0.13878369 Eh      87.09 kcal/mol
Thermal vibrational correction   ...      0.00475924 Eh       2.99 kcal/mol
Thermal rotational correction    ...      0.00141627 Eh       0.89 kcal/mol
Thermal translational correction ...      0.00141627 Eh       0.89 kcal/mol
-----------------------------------------------------------------------
Total thermal energy                   -341.82834157 Eh


Summary of corrections to the electronic energy:
(perhaps to be used in another calculation)
Total thermal correction                  0.00759179 Eh       4.76 kcal/mol
Non-thermal (ZPE) correction              0.13878369 Eh      87.09 kcal/mol
-----------------------------------------------------------------------
Total correction                          0.14637548 Eh      91.85 kcal/mol


--------
ENTHALPY
--------

The enthalpy is H = U + kB*T
                kB is Boltzmann's constant
Total free energy                 ...   -341.82834157 Eh 
Thermal Enthalpy correction       ...      0.00094421 Eh       0.59 kcal/mol
-----------------------------------------------------------------------
Total Enthalpy                    ...   -341.82739736 Eh


-------
ENTROPY
-------

The entropy contributions are T*S = T*(S(el)+S(vib)+S(rot)+S(trans)
     S(el)   - electronic entropy
     S(vib)  - vibrational entropy
     S(rot)  - rotational entropy
     S(trans)- translational entropy
The entropies will be listed as mutliplied by the temperature to get
units of energy

Electronic entropy                ...      0.00000000 Eh      0.00 kcal/mol
Vibrational entropy               ...      0.00817690 Eh      5.13 kcal/mol
Rotational entropy                ...      0.01215971 Eh      7.63 kcal/mol
Translational entropy             ...      0.01888714 Eh     11.85 kcal/mol
-----------------------------------------------------------------------
Final entropy term                ...      0.03922376 Eh     24.61 kcal/mol


CAUTION: The rotational entropy is not quite correctly treated here
         because it includes a symmetry number that is not yet correctly
         implemented in ORCA!
For a nonlinear molecule the correct rotational entropy is:
    S(rot) = R*(ln(qrot/sn)+1.5)
    R    = 8.31441 J/mol/K = 1.987191683e-3 kcal/mol/K
    qrot = 262286.3045130
    sn is the rotational symmetry number. We have assumed 3 here
       if it is different for your molecule then you should correct
       the printed rotational entropy by manually evaluating the equation
       as given above

For convenience we print out the resulting values for sn=1 - 12:
 sn= 1  qrot/sn=  262286.3045 T*S(rot)=     8.28 kcal/mol T*S(tot)=    25.26 kcal/mol
 sn= 2  qrot/sn=  131143.1523 T*S(rot)=     7.87 kcal/mol T*S(tot)=    24.85 kcal/mol
 sn= 3  qrot/sn=   87428.7682 T*S(rot)=     7.63 kcal/mol T*S(tot)=    24.61 kcal/mol
 sn= 4  qrot/sn=   65571.5761 T*S(rot)=     7.46 kcal/mol T*S(tot)=    24.44 kcal/mol
 sn= 5  qrot/sn=   52457.2609 T*S(rot)=     7.33 kcal/mol T*S(tot)=    24.31 kcal/mol
 sn= 6  qrot/sn=   43714.3841 T*S(rot)=     7.22 kcal/mol T*S(tot)=    24.20 kcal/mol
 sn= 7  qrot/sn=   37469.4721 T*S(rot)=     7.13 kcal/mol T*S(tot)=    24.11 kcal/mol
 sn= 8  qrot/sn=   32785.7881 T*S(rot)=     7.05 kcal/mol T*S(tot)=    24.03 kcal/mol
 sn= 9  qrot/sn=   29142.9227 T*S(rot)=     6.98 kcal/mol T*S(tot)=    23.96 kcal/mol
 sn=10  qrot/sn=   26228.6305 T*S(rot)=     6.92 kcal/mol T*S(tot)=    23.90 kcal/mol
 sn=11  qrot/sn=   23844.2095 T*S(rot)=     6.86 kcal/mol T*S(tot)=    23.84 kcal/mol
 sn=12  qrot/sn=   21857.1920 T*S(rot)=     6.81 kcal/mol T*S(tot)=    23.79 kcal/mol


-------------------
GIBBS FREE ENTHALPY
-------------------

The Gibbs free enthalpy is G = H - T*S

Total enthalpy                    ...   -341.82739736 Eh 
Total entropy correction          ...     -0.03922376 Eh    -24.61 kcal/mol
-----------------------------------------------------------------------
Final Gibbs free enthalpy         ...   -341.86662112 Eh

For completeness - the Gibbs free enthalpy minus the electronic energy
G-E(el)                           ...      0.10809593 Eh     67.83 kcal/mol


Timings for individual modules:

Sum of individual times         ...     1396.800 sec (=  23.280 min)
GTO integral calculation        ...        6.028 sec (=   0.100 min)   0.4 %
SCF iterations                  ...      110.242 sec (=   1.837 min)   7.9 %
SCF Gradient evaluation         ...       51.289 sec (=   0.855 min)   3.7 %
Geometry relaxation             ...        0.291 sec (=   0.005 min)   0.0 %
Analytical frequency calculation...     1228.950 sec (=  20.483 min)  88.0 %
                             ****ORCA TERMINATED NORMALLY****
TOTAL RUN TIME: 0 days 0 hours 23 minutes 18 seconds 394 msec
