
                                 *****************
                                 * O   R   C   A *
                                 *****************

           --- An Ab Initio, DFT and Semiempirical electronic structure package ---

                  #######################################################
                  #                        -***-                        #
                  #  Department of molecular theory and spectroscopy    #
                  #              Directorship: Frank Neese              #
                  # Max Planck Institute for Chemical Energy Conversion #
                  #                  D-45470 Muelheim/Ruhr              #
                  #                       Germany                       #
                  #                                                     #
                  #                  All rights reserved                #
                  #                        -***-                        #
                  #######################################################


                         Program Version 3.0.3 - RELEASE   -


 With contributions from (in alphabetic order):
   Ute Becker             : Parallelization
   Dmytro Bykov           : SCF Hessian
   Dmitry Ganyushin       : Spin-Orbit,Spin-Spin,Magnetic field MRCI
   Andreas Hansen         : Spin unrestricted coupled pair/coupled cluster methods
   Dimitrios Liakos       : Extrapolation schemes; parallel MDCI
   Robert Izsak           : Overlap fitted RIJCOSX, COSX-SCS-MP3
   Christian Kollmar      : KDIIS, OOCD, Brueckner-CCSD(T), CCSD density
   Simone Kossmann        : Meta GGA functionals, TD-DFT gradient, OOMP2, MP2 Hessian
   Taras Petrenko         : DFT Hessian,TD-DFT gradient, ASA and ECA modules, normal mode analysis, Resonance Raman, ABS, FL, XAS/XES, NRVS
   Christoph Reimann      : Effective Core Potentials
   Michael Roemelt        : Restricted open shell CIS
   Christoph Riplinger    : Improved optimizer, TS searches, QM/MM, DLPNO-CCSD
   Barbara Sandhoefer     : DKH picture change effects
   Igor Schapiro          : Molecular dynamics
   Kantharuban Sivalingam : CASSCF convergence, NEVPT2
   Boris Wezisla          : Elementary symmetry handling
   Frank Wennmohs         : Technical directorship


 We gratefully acknowledge several colleagues who have allowed us to
 interface, adapt or use parts of their codes:
   Stefan Grimme, W. Hujo, H. Kruse, T. Risthaus : VdW corrections, initial TS optimization,
                                                   DFT functionals, gCP
   Ed Valeev                                     : LibInt (2-el integral package), F12 methods
   Garnet Chan, S. Sharma, R. Olivares           : DMRG
   Ulf Ekstrom                                   : XCFun DFT Library
   Mihaly Kallay                                 : mrcc  (arbitrary order and MRCC methods)
   Andreas Klamt, Michael Diedenhofen            : otool_cosmo (COSMO solvation model)
   Frank Weinhold                                : gennbo (NPA and NBO analysis)
   Christopher J. Cramer and Donald G. Truhlar   : smd solvation model


 Your calculation uses the libint2 library for the computation of 2-el integrals
 For citations please refer to: http://libint.valeyev.net

 This ORCA versions uses:
   CBLAS   interface :  Fast vector & matrix operations
   LAPACKE interface :  Fast linear algebra routines
   SCALAPACK package :  Parallel linear algebra routines


Your calculation utilizes the basis: Ahlrichs-TZV
Cite in your paper:
H - Kr: A. Schaefer, H. Horn and R. Ahlrichs, J. Chem. Phys. 97, 2571 (1992).

The def2-TZV basis will be loaded
Cite in your paper:
 	F. Weigend, R. Ahlrichs, Phys. Chem. Chem. Phys. 2005, 7, 3297.

================================================================================
                                        WARNINGS
                       Please study these warnings very carefully!
================================================================================
Now building the actual basis set
WARNING: Geometry optimizations can change the point-group symmetry!

WARNING: Geometry Optimization
  ===> : Switching off AutoStart
         For restart on a previous wavefunction, please use MOREAD


INFO   : the flag for use of LIBINT has been found!

================================================================================
                                       INPUT FILE
================================================================================
NAME = 5225_+.inp
|  1> ! NORI PBE0 def2-TZVP UseSym TightOPT Freq TightSCF Grid3 FinalGrid5 XYZFile
|  2> % pal
|  3>     nprocs 8
|  4> end
|  5> %method
|  6>     SymThresh 5.0e-2
|  7> end
|  8> % geom 
|  9>     MaxIter 10
| 10> end 
| 11> % maxcore 2000
| 12> % output
| 13>     printlevel mini
| 14>     print[ P_Basis ] 0
| 15>     print[ P_SCFInfo ] 1
| 16>     print[ P_SCFIterInfo ] 1
| 17>     print[ P_OrbEn ] 0
| 18>     print[ P_Cartesian ] 0
| 19> end
| 20> % elprop
| 21>     Dipole false
| 22> end
| 23> *xyz 1 1
| 24>  C        1.2411589302     1.2624823951    -0.9351366361 
| 25>  C        2.5397328680     0.5812471349    -1.1655100982 
| 26>  C        3.0401794553     0.2207514111    -2.3415671518 
| 27>  O        3.1783182923     0.3662832302     0.0376693915 
| 28>  C        4.4156426097    -0.2588987084     0.0000869794 
| 29>  C        4.8466428091    -0.3445685818     1.4505508982 
| 30>  N        6.1871204963    -1.0135810382     1.5562656382 
| 31>  H        0.7292692116     1.4375578116    -1.8789685350 
| 32>  H        1.3957198057     2.2217245781    -0.4347066424 
| 33>  H        0.5990531840     0.6552275946    -0.2919238205 
| 34>  H        2.4750571748     0.4268876293    -3.2388821432 
| 35>  H        3.9932559254    -0.2738982619    -2.4686180724 
| 36>  H        5.1411112248     0.3232259297    -0.5899827764 
| 37>  H        4.3448918932    -1.2628433140    -0.4473232069 
| 38>  H        4.1419802989    -0.9329537979     2.0377512630 
| 39>  H        4.9414341859     0.6464248476     1.8938944844 
| 40>  H        6.1585829119    -1.9626486648     1.1758126374 
| 41>  H        6.4952453103    -1.0785308579     2.5286582916 
| 42>  H        6.9018534124    -0.4964793375     1.0384094990 
| 43> *
| 44> 
| 45>                          ****END OF INPUT****
================================================================================
---------------------
ASYMMETRIC UNIT IN Cs
---------------------
  #  AT     MASS              COORDS (A.U.)             BAS
   0 C   12.0110   4.51045097  -2.91735259   0.00000000   0
   1 C   12.0110   1.73006603  -2.54573241   0.00000000   0
   2 C   12.0110  -0.00973171  -4.35424749   0.00000000   0
   3 O   15.9990   1.17317360   0.00000000   0.00000000   0
   4 C   12.0110  -1.35779058   0.67981055   0.00000000   0
   5 C   12.0110  -1.33963526   3.54376117   0.00000000   0
   6 N   14.0070  -3.99580415   4.54365102   0.00000000   0
   7 H    1.0080   4.97031254  -4.92106869   0.00000000   0
   8 H    1.0080   5.35769743  -2.03834243   1.66600856   0
  10 H    1.0080   0.58671717  -6.30662550   0.00000000   0
  11 H    1.0080  -2.02320706  -4.00622914   0.00000000   0
  12 H    1.0080  -2.33984957  -0.05369343   1.68225004   0
  14 H    1.0080  -0.40346247   4.28435967  -1.67809847   0
  16 H    1.0080  -4.96993757   3.94494971  -1.55858583   0
  17 H    1.0080  -4.02069045   6.47499217   0.00000000   0


                       *****************************
                       * Geometry Optimization Run *
                       *****************************

Geometry optimization settings:
Update method            Update   .... BFGS
Choice of coordinates    CoordSys .... Redundant Internals
Initial Hessian          InHess   .... Almoef's Model

Convergence Tolerances:
Energy Change            TolE     ....  1.0000e-06 Eh
Max. Gradient            TolMAXG  ....  1.0000e-04 Eh/bohr
RMS Gradient             TolRMSG  ....  3.0000e-05 Eh/bohr
Max. Displacement        TolMAXD  ....  1.0000e-03 bohr
RMS Displacement         TolRMSD  ....  6.0000e-04 bohr

------------------------------------------------------------------------------
                        ORCA OPTIMIZATION COORDINATE SETUP
------------------------------------------------------------------------------

The optimization will be done in new redundant internal coordinates
Making redundant internal coordinates   ...  (new redundants) done
Evaluating the initial hessian          ...  (Almloef) done
Evaluating the coordinates              ...  done
Calculating the B-matrix                .... done
Calculating the G-matrix                .... done
Diagonalizing the G-matrix              .... done
Small eigenvalue found = 1.026e-02
The first mode is                       ....   31
The number of degrees of freedom        ....   51

    -----------------------------------------------------------------
                    Redundant Internal Coordinates


    -----------------------------------------------------------------
         Definition                    Initial Value    Approx d2E/dq
    -----------------------------------------------------------------
      1. B(C   1,C   0)                  1.4844         0.441702   
      2. B(C   2,C   1)                  1.3280         0.784689   
      3. B(O   3,C   1)                  1.3790         0.582674   
      4. B(C   4,O   3)                  1.3868         0.566214   
      5. B(C   5,C   4)                  1.5156         0.393915   
      6. B(N   6,C   5)                  1.5019         0.371008   
      7. B(H   7,C   0)                  1.0879         0.362906   
      8. B(H   8,C   0)                  1.0930         0.356170   
      9. B(H   9,C   0)                  1.0930         0.356170   
     10. B(H  10,C   2)                  1.0803         0.373176   
     11. B(H  11,C   2)                  1.0813         0.371817   
     12. B(H  12,C   4)                  1.1015         0.345260   
     13. B(H  13,C   4)                  1.1015         0.345260   
     14. B(H  14,C   5)                  1.0898         0.360417   
     15. B(H  15,C   5)                  1.0898         0.360417   
     16. B(H  16,N   6)                  1.0229         0.412664   
     17. B(H  17,N   6)                  1.0221         0.413885   
     18. B(H  18,N   6)                  1.0229         0.412664   
     19. A(C   1,C   0,H   7)          110.5387         0.333842   
     20. A(H   7,C   0,H   8)          108.8467         0.290693   
     21. A(H   8,C   0,H   9)          107.5319         0.289839   
     22. A(C   1,C   0,H   9)          110.4998         0.332806   
     23. A(C   1,C   0,H   8)          110.4998         0.332806   
     24. A(H   7,C   0,H   9)          108.8467         0.290693   
     25. A(C   2,C   1,O   3)          123.7701         0.444931   
     26. A(C   0,C   1,C   2)          126.2776         0.426075   
     27. A(C   0,C   1,O   3)          109.9523         0.401521   
     28. A(H  10,C   2,H  11)          116.7942         0.293956   
     29. A(C   1,C   2,H  11)          124.0842         0.369387   
     30. A(C   1,C   2,H  10)          119.1216         0.369618   
     31. A(C   1,O   3,C   4)          117.3740         0.416870   
     32. A(H  12,C   4,H  13)          107.8430         0.287031   
     33. A(O   3,C   4,C   5)          104.6714         0.391557   
     34. A(C   5,C   4,H  13)          110.8170         0.324902   
     35. A(O   3,C   4,H  13)          111.3615         0.342985   
     36. A(C   5,C   4,H  12)          110.8170         0.324902   
     37. A(O   3,C   4,H  12)          111.3615         0.342985   
     38. A(C   4,C   5,N   6)          110.2652         0.363949   
     39. A(H  14,C   5,H  15)          109.1487         0.290920   
     40. A(N   6,C   5,H  15)          107.3826         0.322065   
     41. A(C   4,C   5,H  15)          111.2539         0.327207   
     42. A(N   6,C   5,H  14)          107.3826         0.322065   
     43. A(C   4,C   5,H  14)          111.2539         0.327207   
     44. A(H  16,N   6,H  18)          107.4711         0.298706   
     45. A(C   5,N   6,H  18)          111.2548         0.326516   
     46. A(H  16,N   6,H  17)          107.6502         0.298846   
     47. A(C   5,N   6,H  17)          111.3666         0.326675   
     48. A(H  17,N   6,H  18)          107.6502         0.298846   
     49. A(C   5,N   6,H  16)          111.2548         0.326516   
     50. D(C   2,C   1,C   0,H   7)      0.0000         0.014394   
     51. D(O   3,C   1,C   0,H   9)    -59.4451         0.014394   
     52. D(O   3,C   1,C   0,H   8)     59.4451         0.014394   
     53. D(O   3,C   1,C   0,H   7)    180.0000         0.014394   
     54. D(C   2,C   1,C   0,H   9)    120.5549         0.014394   
     55. D(C   2,C   1,C   0,H   8)   -120.5549         0.014394   
     56. D(H  10,C   2,C   1,C   0)      0.0000         0.044312   
     57. D(H  11,C   2,C   1,O   3)      0.0000         0.044312   
     58. D(H  11,C   2,C   1,C   0)    180.0000         0.044312   
     59. D(H  10,C   2,C   1,O   3)    180.0000         0.044312   
     60. D(C   4,O   3,C   1,C   2)      0.0000         0.024706   
     61. D(C   4,O   3,C   1,C   0)    180.0000         0.024706   
     62. D(H  12,C   4,O   3,C   1)     60.2074         0.025637   
     63. D(C   5,C   4,O   3,C   1)    180.0000         0.025637   
     64. D(H  13,C   4,O   3,C   1)    -60.2074         0.025637   
     65. D(H  15,C   5,C   4,H  13)    178.8766         0.012326   
     66. D(H  15,C   5,C   4,O   3)    -60.9667         0.012326   
     67. D(H  14,C   5,C   4,H  13)    -59.1899         0.012326   
     68. D(H  14,C   5,C   4,H  12)   -178.8766         0.012326   
     69. D(H  14,C   5,C   4,O   3)     60.9667         0.012326   
     70. D(N   6,C   5,C   4,H  13)     59.8434         0.012326   
     71. D(H  15,C   5,C   4,H  12)     59.1899         0.012326   
     72. D(N   6,C   5,C   4,H  12)    -59.8434         0.012326   
     73. D(N   6,C   5,C   4,O   3)    180.0000         0.012326   
     74. D(H  17,N   6,C   5,H  15)     58.6344         0.012624   
     75. D(H  17,N   6,C   5,H  14)    -58.6344         0.012624   
     76. D(H  17,N   6,C   5,C   4)    180.0000         0.012624   
     77. D(H  16,N   6,C   5,H  15)    178.7351         0.012624   
     78. D(H  16,N   6,C   5,H  14)     61.4664         0.012624   
     79. D(H  18,N   6,C   5,C   4)     59.8992         0.012624   
     80. D(H  16,N   6,C   5,C   4)    -59.8992         0.012624   
     81. D(H  18,N   6,C   5,H  15)    -61.4664         0.012624   
     82. D(H  18,N   6,C   5,H  14)   -178.7351         0.012624   
    -----------------------------------------------------------------

Number of atoms                         .... 19
Number of degrees of freedom            .... 82

         *************************************************************
         *                GEOMETRY OPTIMIZATION CYCLE   1            *
         *************************************************************


           ************************************************************
           *        Program running with 8 parallel MPI-processes     *
           *              working on a common directory               *
           ************************************************************
           ************************************************************
           *              Shut down parallel processing               *
           ************************************************************


           ************************************************************
           *        Program running with 8 parallel MPI-processes     *
           *              working on a common directory               *
           ************************************************************
------------
SCF SETTINGS
------------
Hamiltonian:
 Density Functional     Method          .... DFT(GTOs)
 Exchange Functional    Exchange        .... PBE
   PBE kappa parameter  XKappa          ....  0.804000
 Correlation Functional Correlation     .... PBE
 LDA part of GGA corr.  LDAOpt          .... PW91-LDA
 Gradients option       PostSCFGGA      .... off
 Hybrid DFT is turned on
   Fraction HF Exchange ScalHFX         ....  0.250000
   Scaling of DF-GGA-X  ScalDFX         ....  0.750000
   Scaling of DF-GGA-C  ScalDFC         ....  1.000000
   Scaling of DF-LDA-C  ScalLDAC        ....  1.000000
   Perturbative correction              ....  0.000000
   NL short-range parameter             ....  6.900000


General Settings:
 Integral files         IntName         .... 5225_+
 Hartree-Fock type      HFTyp           .... RHF
 Total Charge           Charge          ....    1
 Multiplicity           Mult            ....    1
 Number of Electrons    NEL             ....   56
 Basis Dimension        Dim             ....  289
 Nuclear Repulsion      ENuc            ....    319.8300744191 Eh

 Symmetry handling      UseSym         .... ON
 Point group                           .... Cs
 Used point group                      .... Cs
 Number of irreps                      .... 2
   Irrep   A' has  191 symmetry adapted basis functions (ofs=   0)
   Irrep   A" has   98 symmetry adapted basis functions (ofs= 191)

Convergence Acceleration:
 DIIS                   CNVDIIS         .... on
   Start iteration      DIISMaxIt       ....    12
   Startup error        DIISStart       ....  0.200000
   # of expansion vecs  DIISMaxEq       ....     5
   Bias factor          DIISBfac        ....   1.050
   Max. coefficient     DIISMaxC        ....  10.000
 Newton-Raphson         CNVNR           .... off
 SOSCF                  CNVSOSCF        .... on
   Start iteration      SOSCFMaxIt      ....   150
   Startup grad/error   SOSCFStart      ....  0.003300
 Level Shifting         CNVShift        .... on
   Level shift para.    LevelShift      ....    0.2500
   Turn off err/grad.   ShiftErr        ....    0.0010
 Zerner damping         CNVZerner       .... off
 Static damping         CNVDamp         .... on
   Fraction old density DampFac         ....    0.7000
   Max. Damping (<1)    DampMax         ....    0.9800
   Min. Damping (>=0)   DampMin         ....    0.0000
   Turn off err/grad.   DampErr         ....    0.1000
 Fernandez-Rico         CNVRico         .... off

SCF Procedure:
 Maximum # iterations   MaxIter         ....   125
 SCF integral mode      SCFMode         .... Direct
   Integral package                     .... LIBINT
 Reset frequeny         DirectResetFreq ....    20
 Integral Threshold     Thresh          ....  2.500e-11 Eh
 Primitive CutOff       TCut            ....  2.500e-12 Eh

Convergence Tolerance:
 Convergence Check Mode ConvCheckMode   .... Total+1el-Energy
 Energy Change          TolE            ....  1.000e-08 Eh
 1-El. energy change                    ....  1.000e-05 Eh
 Orbital Gradient       TolG            ....  1.000e-05
 Orbital Rotation angle TolX            ....  1.000e-05
 DIIS Error             TolErr          ....  5.000e-07


Diagonalization of the overlap matrix:
Smallest eigenvalue                        ... 1.291e-04
Time for diagonalization                   ...    0.304 sec
Threshold for overlap eigenvalues          ... 1.000e-08
Number of eigenvalues below threshold      ... 0
Time for construction of square roots      ...    0.046 sec
Producing symmetrization matrix            ... done (   0.020 sec)
Total time needed                          ...    0.371 sec

-------------------
DFT GRID GENERATION
-------------------

General Integration Accuracy     IntAcc      ...  4.340
Radial Grid Type                 RadialGrid  ... Gauss-Chebyshev
Angular Grid (max. acc.)         AngularGrid ... Lebedev-194
Angular grid pruning method      GridPruning ... 3 (G Style)
Weight generation scheme         WeightScheme... Becke
Basis function cutoff            BFCut       ...    1.0000e-11
Integration weight cutoff        WCut        ...    1.0000e-14
Grids for H and He will be reduced by one unit

# of grid points (after initial pruning)     ...  41422 (   0.0 sec)
# of grid points (after weights+screening)   ...  38052 (   0.4 sec)
nearest neighbour list constructed           ...    0.0 sec
Grid point re-assignment to atoms done       ...    0.0 sec
Grid point division into batches done        ...    0.1 sec
Reduced shell lists constructed in    0.3 sec

Total number of grid points                  ...    38052
Total number of batches                      ...      602
Average number of points per batch           ...       63
Average number of grid points per atom       ...     2003
Average number of shells per batch           ...    88.87 (71.10%)
Average number of basis functions per batch  ...   211.08 (73.04%)
Average number of large shells per batch     ...    71.69 (80.67%)
Average number of large basis fcns per batch ...   172.08 (81.52%)
Maximum spatial batch extension              ...   3.24,  3.34,  4.27 au
Average spatial batch extension              ...   0.18,  0.18,  0.18 au

Time for grid setup =    1.344 sec

Loading Hartree-Fock densities                     ... done
Calculating cut-offs                               ... done
Setting up the integral package                    ... done
Initializing the effective Hamiltonian             ... done
Starting the Coulomb interaction                   ... done (   0.1 sec)
Reading the grid                                   ... done
Mapping shells                                     ... done
Starting the XC term evaluation                    ... done (   0.6 sec)
  promolecular density results
     # of electrons  =     56.992239552
     EX              =    -43.857694874
     EC              =     -1.871600248
     EX+EC           =    -45.729295122
done (   0.0 sec)
Diagonalizing the Hamiltonian                      ... done (   0.1 sec)
Back transforming the eigenvectors                 ... done (   0.0 sec)
Now organizing SCF variables                       ... done
The symmetry of the initial guess is 1-A'
Irrep occupations for operator 0
    A' -   22
    A" -    6
--------------
SCF ITERATIONS
--------------
ITER       Energy         Delta-E        Max-DP      RMS-DP      [F,P]     Damp
               ***  Starting incremental Fock matrix formation  ***
  0   -327.0105137896   0.000000000000 0.05626919  0.00126840  0.1828099 0.7000
  1   -327.0849158796  -0.074402089982 0.02136702  0.00045880  0.0728104 0.7000
                               ***Turning on DIIS***
  2   -327.1207128865  -0.035797006921 0.03262619  0.00075219  0.0310831 0.0000
  3   -327.1905735337  -0.069860647224 0.01390016  0.00035233  0.0283165 0.0000
  4   -327.1941313928  -0.003557859122 0.00398063  0.00006583  0.0067774 0.0000
                      *** Initiating the SOSCF procedure ***
                           *** Shutting down DIIS ***
                      *** Re-Reading the Fockian *** 
                      *** Removing any level shift *** 
ITER      Energy       Delta-E        Grad      Rot      Max-DP    RMS-DP
  5   -327.19433608  -0.0002046898  0.000634  0.000634  0.001498  0.000021
               *** Restarting incremental Fock matrix formation ***
  6   -327.19434523  -0.0000091486  0.000776  0.015519  0.006885  0.000094
  7   -327.19406309   0.0002821438  0.007768  0.015678  0.007113  0.000097
  8   -327.19434261  -0.0002795209  0.000427  0.002908  0.002716  0.000063
  9   -327.19427631   0.0000662965  0.001531  0.002668  0.002390  0.000053
 10   -327.19434996  -0.0000736473  0.000144  0.001663  0.002526  0.000052
 11   -327.19434413   0.0000058303  0.000385  0.001443  0.002056  0.000043
 12   -327.19435067  -0.0000065365  0.000108  0.001682  0.001089  0.000022
 13   -327.19434920   0.0000014659  0.000352  0.001466  0.000939  0.000018
 14   -327.19435080  -0.0000016014  0.000050  0.000595  0.000664  0.000013
 15   -327.19435039   0.0000004064  0.000134  0.000518  0.000500  0.000010
 16   -327.19435085  -0.0000004575  0.000014  0.000141  0.000154  0.000003
 17   -327.19435082   0.0000000346  0.000031  0.000102  0.000104  0.000003
 18   -327.19435086  -0.0000000435  0.000004  0.000061  0.000123  0.000002
 19   -327.19435086   0.0000000039  0.000013  0.000052  0.000094  0.000001
                  ***Gradient check signals convergence***
              ***Rediagonalizing the Fockian in SOSCF/NRSCF***

               *****************************************************
               *                     SUCCESS                       *
               *           SCF CONVERGED AFTER  20 CYCLES          *
               *****************************************************

Setting up the final grid:

General Integration Accuracy     IntAcc      ...  5.010
Radial Grid Type                 RadialGrid  ... Gauss-Chebyshev
Angular Grid (max. acc.)         AngularGrid ... Lebedev-434
Angular grid pruning method      GridPruning ... 3 (G Style)
Weight generation scheme         WeightScheme... Becke
Basis function cutoff            BFCut       ...    1.0000e-11
Integration weight cutoff        WCut        ...    1.0000e-14
Grids for H and He will be reduced by one unit

# of grid points (after initial pruning)     ... 155226 (   0.0 sec)
# of grid points (after weights+screening)   ... 141061 (   4.3 sec)
nearest neighbour list constructed           ...    0.0 sec
Grid point re-assignment to atoms done       ...    0.0 sec
Grid point division into batches done        ...    1.5 sec
Reduced shell lists constructed in    1.8 sec

Total number of grid points                  ...   141061
Total number of batches                      ...     2213
Average number of points per batch           ...       63
Average number of grid points per atom       ...     7424
Average number of shells per batch           ...    86.17 (68.94%)
Average number of basis functions per batch  ...   203.95 (70.57%)
Average number of large shells per batch     ...    68.05 (78.98%)
Average number of large basis fcns per batch ...   162.36 (79.61%)
Maximum spatial batch extension              ...   2.41,  2.23,  4.17 au
Average spatial batch extension              ...   0.11,  0.11,  0.12 au

Final grid set up in    7.2 sec
Final integration                            ... done (   1.1 sec)
Change in XC energy                          ...     0.000304663
Integrated number of electrons               ...    56.000006442
Previous integrated no of electrons          ...    55.998888422
Total Energy       :         -327.19404620 Eh           -8903.40264 eV
  Last Energy change         ...   -4.3520e-09  Tolerance :   1.0000e-08
  Last MAX-Density change    ...    4.2847e-05  Tolerance :   1.0000e-07
             **** THE GBW FILE WAS UPDATED (5225_+.gbw) ****
             **** DENSITY FILE WAS UPDATED (5225_+.scfp.tmp) ****
             **** ENERGY FILE WAS UPDATED (5225_+.en.tmp) ****
Total SCF time: 0 days 0 hours 2 min 55 sec 
           ************************************************************
           *              Shut down parallel processing               *
           ************************************************************

-------------------------   --------------------
FINAL SINGLE POINT ENERGY      -327.194046198195
-------------------------   --------------------



           ************************************************************
           *        Program running with 8 parallel MPI-processes     *
           *              working on a common directory               *
           ************************************************************
------------------------------------------------------------------------------
                         ORCA SCF GRADIENT CALCULATION
------------------------------------------------------------------------------

Gradient of the Kohn-Sham DFT energy:
Kohn-Sham wavefunction type      ... RKS
Hartree-Fock exchange scaling    ...    0.250
Number of operators              ...    1
Number of atoms                  ...   19
Basis set dimensions             ...  289
Integral neglect threshold       ... 2.5e-11
Integral primitive cutoff        ... 2.5e-12

Nuclear repulsion gradient       ... done
One Electron Gradient            ... done
Pre-screening matrix             ... done
Starting the two electron gradient:
Two electron gradient done
Exchange-correlation gradient    ... done

------------------
CARTESIAN GRADIENT
------------------

   1   C   :   -0.000015576   -0.000144859    0.000000000
   2   C   :    0.000017230   -0.000259283    0.000000000
   3   C   :   -0.000124684    0.000002411    0.000000000
   4   O   :    0.000079793    0.000123199    0.000000001
   5   C   :   -0.000099705    0.000038947   -0.000000000
   6   C   :    0.000113094   -0.000004958    0.000000000
   7   N   :   -0.000140269    0.000024181   -0.000000001
   8   H   :    0.000001347    0.000069225   -0.000000000
   9   H   :    0.000011667    0.000064515    0.000051706
  10   H   :    0.000011666    0.000064516   -0.000051706
  11   H   :   -0.000004752    0.000011823   -0.000000000
  12   H   :    0.000133710    0.000093104    0.000000000
  13   H   :   -0.000011156   -0.000066394    0.000053764
  14   H   :   -0.000011156   -0.000066392   -0.000053764
  15   H   :   -0.000005000   -0.000003742    0.000016041
  16   H   :   -0.000005000   -0.000003744   -0.000016043
  17   H   :    0.000031805    0.000014356    0.000048371
  18   H   :   -0.000014818    0.000028737   -0.000000000
  19   H   :    0.000031804    0.000014356   -0.000048371

Norm of the cartesian gradient     ...    0.000489312
RMS gradient                       ...    0.000064811
MAX gradient                       ...    0.000259283

-------
TIMINGS
-------

Total SCF gradient time            ...       44.271 sec

One electron gradient       ....       0.232 sec  (  0.5%)
Prescreening matrices       ....       0.486 sec  (  1.1%)
Two electron gradient       ....      26.361 sec  ( 59.5%)
XC gradient                 ....       4.099 sec  (  9.3%)
           ************************************************************
           *              Shut down parallel processing               *
           ************************************************************
------------------------------------------------------------------------------
                         ORCA GEOMETRY RELAXATION STEP
------------------------------------------------------------------------------

Reading the OPT-File                    .... done
Getting information on internals        .... done
Copying old internal coords+grads       .... done
Making the new internal coordinates     .... (new redundants).... done
Validating the new internal coordinates .... (new redundants).... done
Calculating the B-matrix                .... done
Calculating the G,G- and P matrices     .... done
Transforming gradient to internals      .... done
Projecting the internal gradient        .... done
Number of atoms                         ....  19
Number of internal coordinates          ....  82
Current Energy                          ....  -327.194046198 Eh
Current gradient norm                   ....     0.000489312 Eh/bohr
Maximum allowed component of the step   ....  0.300
Current trust radius                    ....  0.300
Evaluating the initial hessian          ....  (Almloef) done
Projecting the Hessian                  .... done
Forming the augmented Hessian           .... done
Diagonalizing the augmented Hessian     .... done
Last element of RFO vector              ....  0.999998995
Lowest eigenvalues of augmented Hessian:
 -0.000000681  0.012325812  0.012623824  0.014394459  0.024705602
Length of the computed step             ....  0.001417771
The final length of the internal step   ....  0.001417771
Converting the step to cartesian space:
 Initial RMS(Int)=    0.0001565666
Transforming coordinates:
 Iter   0:  RMS(Cart)=    0.0005322299 RMS(Int)=    0.9812686948
 Iter   1:  RMS(Cart)=    0.0000001700 RMS(Int)=    0.0000001231
 Iter   2:  RMS(Cart)=    0.0000000001 RMS(Int)=    0.0000000001
done
Storing new coordinates                 .... done

                                .--------------------.
          ----------------------|Geometry convergence|---------------------
          Item                value                 Tolerance   Converged
          -----------------------------------------------------------------
          RMS gradient        0.00005630            0.00003000      NO
          MAX gradient        0.00022973            0.00010000      NO
          RMS step            0.00015657            0.00060000      YES
          MAX step            0.00053505            0.00100000      YES
          ....................................................
          Max(Bonds)      0.0002      Max(Angles)    0.03
          Max(Dihed)        0.01      Max(Improp)    0.00
          -----------------------------------------------------------------

The optimization has not yet converged - more geometry cycles are needed


    ---------------------------------------------------------------------------
                         Redundant Internal Coordinates
                            (Angstroem and degrees)

        Definition                    Value    dE/dq     Step     New-Value
    ----------------------------------------------------------------------------
     1. B(C   1,C   0)                1.4844  0.000002 -0.0000    1.4844   
     2. B(C   2,C   1)                1.3280 -0.000080  0.0001    1.3280   
     3. B(O   3,C   1)                1.3790  0.000103 -0.0001    1.3789   
     4. B(C   4,O   3)                1.3868  0.000099 -0.0001    1.3867   
     5. B(C   5,C   4)                1.5156  0.000070 -0.0001    1.5155   
     6. B(N   6,C   5)                1.5019  0.000114 -0.0002    1.5017   
     7. B(H   7,C   0)                1.0879 -0.000067  0.0001    1.0880   
     8. B(H   8,C   0)                1.0930  0.000074 -0.0001    1.0929   
     9. B(H   9,C   0)                1.0930  0.000074 -0.0001    1.0929   
    10. B(H  10,C   2)                1.0803 -0.000013  0.0000    1.0803   
    11. B(H  11,C   2)                1.0813 -0.000116  0.0002    1.0814   
    12. B(H  12,C   4)                1.1015  0.000072 -0.0001    1.1013   
    13. B(H  13,C   4)                1.1015  0.000072 -0.0001    1.1013   
    14. B(H  14,C   5)                1.0898 -0.000017  0.0000    1.0898   
    15. B(H  15,C   5)                1.0898 -0.000017  0.0000    1.0898   
    16. B(H  16,N   6)                1.0229 -0.000060  0.0001    1.0230   
    17. B(H  17,N   6)                1.0221  0.000029 -0.0000    1.0221   
    18. B(H  18,N   6)                1.0229 -0.000060  0.0001    1.0230   
    19. A(C   1,C   0,H   7)          110.54  0.000050   -0.01    110.53   
    20. A(H   7,C   0,H   8)          108.85  0.000015   -0.01    108.84   
    21. A(H   8,C   0,H   9)          107.53  0.000003    0.01    107.54   
    22. A(C   1,C   0,H   9)          110.50 -0.000041    0.01    110.51   
    23. A(C   1,C   0,H   8)          110.50 -0.000041    0.01    110.51   
    24. A(H   7,C   0,H   9)          108.85  0.000015   -0.01    108.84   
    25. A(C   2,C   1,O   3)          123.77 -0.000187    0.02    123.79   
    26. A(C   0,C   1,C   2)          126.28  0.000230   -0.03    126.25   
    27. A(C   0,C   1,O   3)          109.95 -0.000043    0.01    109.96   
    28. A(H  10,C   2,H  11)          116.79  0.000077   -0.01    116.78   
    29. A(C   1,C   2,H  11)          124.08 -0.000157    0.03    124.11   
    30. A(C   1,C   2,H  10)          119.12  0.000080   -0.01    119.11   
    31. A(C   1,O   3,C   4)          117.37 -0.000124    0.02    117.39   
    32. A(H  12,C   4,H  13)          107.84 -0.000023    0.00    107.84   
    33. A(O   3,C   4,C   5)          104.67 -0.000042    0.01    104.68   
    34. A(C   5,C   4,H  13)          110.82  0.000048   -0.01    110.81   
    35. A(O   3,C   4,H  13)          111.36 -0.000015    0.01    111.37   
    36. A(C   5,C   4,H  12)          110.82  0.000048   -0.01    110.81   
    37. A(O   3,C   4,H  12)          111.36 -0.000015    0.01    111.37   
    38. A(C   4,C   5,N   6)          110.27  0.000061   -0.01    110.25   
    39. A(H  14,C   5,H  15)          109.15  0.000007    0.00    109.15   
    40. A(N   6,C   5,H  15)          107.38 -0.000019    0.00    107.38   
    41. A(C   4,C   5,H  15)          111.25 -0.000016    0.00    111.26   
    42. A(N   6,C   5,H  14)          107.38 -0.000019    0.00    107.38   
    43. A(C   4,C   5,H  14)          111.25 -0.000016    0.00    111.26   
    44. A(H  16,N   6,H  18)          107.47  0.000003    0.00    107.47   
    45. A(C   5,N   6,H  18)          111.25 -0.000008    0.00    111.26   
    46. A(H  16,N   6,H  17)          107.65 -0.000005    0.00    107.65   
    47. A(C   5,N   6,H  17)          111.37  0.000022   -0.00    111.36   
    48. A(H  17,N   6,H  18)          107.65 -0.000005    0.00    107.65   
    49. A(C   5,N   6,H  16)          111.25 -0.000008    0.00    111.26   
    50. D(C   2,C   1,C   0,H   7)      0.00  0.000000   -0.00     -0.00   
    51. D(O   3,C   1,C   0,H   9)    -59.45  0.000024   -0.01    -59.45   
    52. D(O   3,C   1,C   0,H   8)     59.45 -0.000024    0.01     59.45   
    53. D(O   3,C   1,C   0,H   7)    180.00  0.000000   -0.00    180.00   
    54. D(C   2,C   1,C   0,H   9)    120.55  0.000024   -0.01    120.55   
    55. D(C   2,C   1,C   0,H   8)   -120.55 -0.000024    0.01   -120.55   
    56. D(H  10,C   2,C   1,C   0)      0.00  0.000000   -0.00     -0.00   
    57. D(H  11,C   2,C   1,O   3)      0.00 -0.000000    0.00      0.00   
    58. D(H  11,C   2,C   1,C   0)    180.00  0.000000   -0.00    180.00   
    59. D(H  10,C   2,C   1,O   3)    180.00 -0.000000    0.00    180.00   
    60. D(C   4,O   3,C   1,C   2)      0.00 -0.000000    0.00      0.00   
    61. D(C   4,O   3,C   1,C   0)    180.00 -0.000000    0.00    180.00   
    62. D(H  12,C   4,O   3,C   1)     60.21 -0.000025    0.01     60.21   
    63. D(C   5,C   4,O   3,C   1)    180.00  0.000000   -0.00    180.00   
    64. D(H  13,C   4,O   3,C   1)    -60.21  0.000025   -0.01    -60.21   
    65. D(H  15,C   5,C   4,H  13)    178.88  0.000024   -0.01    178.87   
    66. D(H  15,C   5,C   4,O   3)    -60.97  0.000006   -0.00    -60.97   
    67. D(H  14,C   5,C   4,H  13)    -59.19  0.000011   -0.00    -59.19   
    68. D(H  14,C   5,C   4,H  12)   -178.88 -0.000024    0.01   -178.87   
    69. D(H  14,C   5,C   4,O   3)     60.97 -0.000006    0.00     60.97   
    70. D(N   6,C   5,C   4,H  13)     59.84  0.000017   -0.01     59.84   
    71. D(H  15,C   5,C   4,H  12)     59.19 -0.000011    0.00     59.19   
    72. D(N   6,C   5,C   4,H  12)    -59.84 -0.000017    0.01    -59.84   
    73. D(N   6,C   5,C   4,O   3)    180.00 -0.000000   -0.00    180.00   
    74. D(H  17,N   6,C   5,H  15)     58.63 -0.000006    0.00     58.64   
    75. D(H  17,N   6,C   5,H  14)    -58.63  0.000006   -0.00    -58.64   
    76. D(H  17,N   6,C   5,C   4)    180.00 -0.000000   -0.00    180.00   
    77. D(H  16,N   6,C   5,H  15)    178.74 -0.000002    0.00    178.74   
    78. D(H  16,N   6,C   5,H  14)     61.47  0.000009   -0.00     61.46   
    79. D(H  18,N   6,C   5,C   4)     59.90 -0.000004    0.00     59.90   
    80. D(H  16,N   6,C   5,C   4)    -59.90  0.000004   -0.00    -59.90   
    81. D(H  18,N   6,C   5,H  15)    -61.47 -0.000009    0.00    -61.46   
    82. D(H  18,N   6,C   5,H  14)   -178.74  0.000002   -0.00   -178.74   
    ----------------------------------------------------------------------------

         *************************************************************
         *                GEOMETRY OPTIMIZATION CYCLE   2            *
         *************************************************************
---------------------------------
CARTESIAN COORDINATES (ANGSTROEM)
---------------------------------
  C      2.386644   -1.543703    0.000000
  C      0.915337   -1.346997   -0.000000
  C     -0.004885   -2.304520   -0.000000
  O      0.620561    0.000033   -0.000000
  C     -0.718597    0.360048   -0.000000
  C     -0.708864    1.875491   -0.000000
  N     -2.114362    2.404376    0.000000
  H      2.629761   -2.604177    0.000000
  H      2.835091   -1.078813    0.881563
  H      2.835091   -1.078813   -0.881563
  H      0.311469   -3.337470   -0.000000
  H     -1.070705   -2.121330   -0.000000
  H     -1.238408   -0.027811    0.890125
  H     -1.238408   -0.027811   -0.890125
  H     -0.213482    2.267405   -0.888050
  H     -0.213482    2.267405    0.888050
  H     -2.629866    2.087509   -0.824835
  H     -2.127575    3.426360    0.000000
  H     -2.629865    2.087509    0.824835

----------------------------
CARTESIAN COORDINATES (A.U.)
----------------------------
  NO LB      ZA    FRAG    MASS        X           Y           Z
   0 C     6.0000    0    12.011          4.510103145692907         -2.917175784095867          0.000000020344002
   1 C     6.0000    0    12.011          1.729735380143603         -2.545455087529005         -0.000000034546523
   2 C     6.0000    0    12.011         -0.009230843044758         -4.354911115274039         -0.000000035767881
   3 O     8.0000    0    15.999          1.172690954590622          0.000062558231981         -0.000000050544477
   4 C     6.0000    0    12.011         -1.357951910124105          0.680391908194118         -0.000000008484026
   5 C     6.0000    0    12.011         -1.339558088436720          3.544163631007901         -0.000000013243413
   6 N     7.0000    0    14.007         -3.995564825376444          4.543611983530389          0.000000021497757
   7 H     1.0000    0     1.008          4.969527197386144         -4.921181771115674          0.000000100148613
   8 H     1.0000    0     1.008          5.357545719788950         -2.038660971195912          1.665913100894495
   9 H     1.0000    0     1.008          5.357545783100975         -2.038661087464444         -1.665913091229981
  10 H     1.0000    0     1.008          0.588591017338657         -6.306904835832795         -0.000000006661359
  11 H     1.0000    0     1.008         -2.023339247567578         -4.008732793548517         -0.000000069006960
  12 H     1.0000    0     1.008         -2.340252824673010         -0.052554595352323          1.682093416837257
  13 H     1.0000    0     1.008         -2.340252882853558         -0.052554617075054         -1.682093393531055
  14 H     1.0000    0     1.008         -0.403423179188017          4.284774002064394         -1.678170983401244
  15 H     1.0000    0     1.008         -0.403423140248251          4.284774017328187          1.678170934134530
  16 H     1.0000    0     1.008         -4.969725577636161          3.944819415917006         -1.558712751614241
  17 H     1.0000    0     1.008         -4.020534400186206          6.474881868860932          0.000000025108623
  18 H     1.0000    0     1.008         -4.969725530748003          3.944819413177244          1.558712819065884

--------------------------------
INTERNAL COORDINATES (ANGSTROEM)
--------------------------------
 C      0   0   0   0.000000     0.000     0.000
 C      1   0   0   1.484398     0.000     0.000
 C      2   1   0   1.328028   126.247     0.000
 O      2   1   3   1.378906   109.959   180.000
 C      4   2   1   1.386707   117.391   180.000
 C      5   4   2   1.515474   104.679   180.000
 N      6   5   4   1.501714   110.253   180.000
 H      1   2   3   1.087985   110.527     0.000
 H      1   2   3   1.092878   110.509   239.455
 H      1   2   3   1.092878   110.509   120.545
 H      3   2   1   1.080309   119.110     0.000
 H      3   2   1   1.081449   124.109   180.000
 H      5   4   2   1.101345   111.369    60.213
 H      5   4   2   1.101345   111.369   299.787
 H      6   5   4   1.089785   111.256    60.970
 H      6   5   4   1.089785   111.256   299.030
 H      7   6   5   1.022987   111.257   300.099
 H      7   6   5   1.022069   111.362   180.000
 H      7   6   5   1.022987   111.257    59.901

---------------------------
INTERNAL COORDINATES (A.U.)
---------------------------
 C      0   0   0   0.000000     0.000     0.000
 C      1   0   0   2.805106     0.000     0.000
 C      2   1   0   2.509608   126.247     0.000
 O      2   1   3   2.605755   109.959   180.000
 C      4   2   1   2.620496   117.391   180.000
 C      5   4   2   2.863831   104.679   180.000
 N      6   5   4   2.837828   110.253   180.000
 H      1   2   3   2.055994   110.527     0.000
 H      1   2   3   2.065239   110.509   239.455
 H      1   2   3   2.065239   110.509   120.545
 H      3   2   1   2.041487   119.110     0.000
 H      3   2   1   2.043642   124.109   180.000
 H      5   4   2   2.081241   111.369    60.213
 H      5   4   2   2.081241   111.369   299.787
 H      6   5   4   2.059396   111.256    60.970
 H      6   5   4   2.059396   111.256   299.030
 H      7   6   5   1.933165   111.257   300.099
 H      7   6   5   1.931431   111.362   180.000
 H      7   6   5   1.933165   111.257    59.901



           ************************************************************
           *        Program running with 8 parallel MPI-processes     *
           *              working on a common directory               *
           ************************************************************
           ************************************************************
           *              Shut down parallel processing               *
           ************************************************************


           ************************************************************
           *        Program running with 8 parallel MPI-processes     *
           *              working on a common directory               *
           ************************************************************

Diagonalization of the overlap matrix:
Smallest eigenvalue                        ... 1.292e-04
Time for diagonalization                   ...    0.875 sec
Threshold for overlap eigenvalues          ... 1.000e-08
Number of eigenvalues below threshold      ... 0
Time for construction of square roots      ...    0.028 sec
Producing symmetrization matrix            ... done (   0.018 sec)
Total time needed                          ...    0.921 sec

Warning: Geometry matches/Basis set matches and symmetry is to be used
         We proceed in good trust that the input orbitals and irreps are correct
Irrep occupations for operator 0
    A' -   22
    A" -    6
-------------------
DFT GRID GENERATION
-------------------

General Integration Accuracy     IntAcc      ...  4.340
Radial Grid Type                 RadialGrid  ... Gauss-Chebyshev
Angular Grid (max. acc.)         AngularGrid ... Lebedev-194
Angular grid pruning method      GridPruning ... 3 (G Style)
Weight generation scheme         WeightScheme... Becke
Basis function cutoff            BFCut       ...    1.0000e-11
Integration weight cutoff        WCut        ...    1.0000e-14
Grids for H and He will be reduced by one unit

# of grid points (after initial pruning)     ...  41422 (   0.0 sec)
# of grid points (after weights+screening)   ...  38054 (   0.4 sec)
nearest neighbour list constructed           ...    0.0 sec
Grid point re-assignment to atoms done       ...    0.0 sec
Grid point division into batches done        ...    0.1 sec
Reduced shell lists constructed in    0.3 sec

Total number of grid points                  ...    38054
Total number of batches                      ...      602
Average number of points per batch           ...       63
Average number of grid points per atom       ...     2003
Average number of shells per batch           ...    88.87 (71.10%)
Average number of basis functions per batch  ...   211.08 (73.04%)
Average number of large shells per batch     ...    71.69 (80.67%)
Average number of large basis fcns per batch ...   172.08 (81.52%)
Maximum spatial batch extension              ...   3.25,  3.34,  4.27 au
Average spatial batch extension              ...   0.18,  0.18,  0.18 au

Time for grid setup =    1.317 sec

--------------
SCF ITERATIONS
--------------
ITER       Energy         Delta-E        Max-DP      RMS-DP      [F,P]     Damp
               ***  Starting incremental Fock matrix formation  ***
                      *** Initiating the SOSCF procedure ***
                      *** Re-Reading the Fockian *** 
                      *** Removing any level shift *** 
ITER      Energy       Delta-E        Grad      Rot      Max-DP    RMS-DP
  0   -327.19435051 -327.1943505072  0.000068  0.000068  0.000122  0.000003
               *** Restarting incremental Fock matrix formation ***
  1   -327.19435074  -0.0000002332  0.000029  0.000588  0.000234  0.000004
  2   -327.19435031   0.0000004297  0.000298  0.000633  0.000285  0.000004
  3   -327.19435073  -0.0000004156  0.000031  0.000162  0.000194  0.000003
  4   -327.19435054   0.0000001892  0.000070  0.000106  0.000122  0.000003
  5   -327.19435075  -0.0000002135  0.000011  0.000145  0.000157  0.000003
  6   -327.19435073   0.0000000203  0.000032  0.000122  0.000146  0.000002
  7   -327.19435075  -0.0000000228  0.000004  0.000037  0.000076  0.000001
  8   -327.19435075   0.0000000021  0.000010  0.000029  0.000051  0.000001
                  ***Gradient check signals convergence***
              ***Rediagonalizing the Fockian in SOSCF/NRSCF***

               *****************************************************
               *                     SUCCESS                       *
               *           SCF CONVERGED AFTER   9 CYCLES          *
               *****************************************************

Setting up the final grid:

General Integration Accuracy     IntAcc      ...  5.010
Radial Grid Type                 RadialGrid  ... Gauss-Chebyshev
Angular Grid (max. acc.)         AngularGrid ... Lebedev-434
Angular grid pruning method      GridPruning ... 3 (G Style)
Weight generation scheme         WeightScheme... Becke
Basis function cutoff            BFCut       ...    1.0000e-11
Integration weight cutoff        WCut        ...    1.0000e-14
Grids for H and He will be reduced by one unit

# of grid points (after initial pruning)     ... 155226 (   0.0 sec)
# of grid points (after weights+screening)   ... 141061 (   4.6 sec)
nearest neighbour list constructed           ...    0.0 sec
Grid point re-assignment to atoms done       ...    0.0 sec
Grid point division into batches done        ...    1.1 sec
Reduced shell lists constructed in    1.6 sec

Total number of grid points                  ...   141061
Total number of batches                      ...     2213
Average number of points per batch           ...       63
Average number of grid points per atom       ...     7424
Average number of shells per batch           ...    86.14 (68.91%)
Average number of basis functions per batch  ...   203.91 (70.56%)
Average number of large shells per batch     ...    68.07 (79.03%)
Average number of large basis fcns per batch ...   162.40 (79.64%)
Maximum spatial batch extension              ...   2.41,  2.23,  4.17 au
Average spatial batch extension              ...   0.11,  0.11,  0.12 au

Final grid set up in    8.0 sec
Final integration                            ... done (   1.4 sec)
Change in XC energy                          ...     0.000304082
Integrated number of electrons               ...    56.000006585
Previous integrated no of electrons          ...    55.998881687
Total Energy       :         -327.19404667 Eh           -8903.40265 eV
  Last Energy change         ...   -2.7512e-09  Tolerance :   1.0000e-08
  Last MAX-Density change    ...    2.3019e-05  Tolerance :   1.0000e-07
             **** THE GBW FILE WAS UPDATED (5225_+.gbw) ****
             **** DENSITY FILE WAS UPDATED (5225_+.scfp.tmp) ****
             **** ENERGY FILE WAS UPDATED (5225_+.en.tmp) ****
Total SCF time: 0 days 0 hours 1 min 31 sec 
           ************************************************************
           *              Shut down parallel processing               *
           ************************************************************

-------------------------   --------------------
FINAL SINGLE POINT ENERGY      -327.194046672234
-------------------------   --------------------



           ************************************************************
           *        Program running with 8 parallel MPI-processes     *
           *              working on a common directory               *
           ************************************************************
------------------------------------------------------------------------------
                         ORCA SCF GRADIENT CALCULATION
------------------------------------------------------------------------------

Gradient of the Kohn-Sham DFT energy:
Kohn-Sham wavefunction type      ... RKS
Hartree-Fock exchange scaling    ...    0.250
Number of operators              ...    1
Number of atoms                  ...   19
Basis set dimensions             ...  289
Integral neglect threshold       ... 2.5e-11
Integral primitive cutoff        ... 2.5e-12

Nuclear repulsion gradient       ... done
One Electron Gradient            ... done
Pre-screening matrix             ... done
Starting the two electron gradient:
Two electron gradient done
Exchange-correlation gradient    ... done

------------------
CARTESIAN GRADIENT
------------------

   1   C   :    0.000000230   -0.000017755    0.000000001
   2   C   :    0.000034762   -0.000149887   -0.000000002
   3   C   :   -0.000021685   -0.000057899   -0.000000000
   4   O   :    0.000027483    0.000104739   -0.000000011
   5   C   :   -0.000100881    0.000035897    0.000000005
   6   C   :    0.000053422   -0.000025871   -0.000000004
   7   N   :   -0.000030966    0.000035543    0.000000000
   8   H   :    0.000009794    0.000006683    0.000000006
   9   H   :   -0.000011767    0.000023762   -0.000002046
  10   H   :   -0.000011764    0.000023752    0.000002046
  11   H   :   -0.000002400    0.000000098    0.000000002
  12   H   :    0.000025492    0.000065985   -0.000000002
  13   H   :    0.000013952   -0.000017138   -0.000003291
  14   H   :    0.000013945   -0.000017141    0.000003293
  15   H   :   -0.000004238   -0.000000494   -0.000000143
  16   H   :   -0.000004232   -0.000000492    0.000000143
  17   H   :    0.000004756   -0.000003393   -0.000003165
  18   H   :   -0.000000664   -0.000002993    0.000000000
  19   H   :    0.000004761   -0.000003394    0.000003168

Norm of the cartesian gradient     ...    0.000253862
RMS gradient                       ...    0.000033625
MAX gradient                       ...    0.000149887

-------
TIMINGS
-------

Total SCF gradient time            ...       45.237 sec

One electron gradient       ....       0.232 sec  (  0.5%)
Prescreening matrices       ....       0.818 sec  (  1.8%)
Two electron gradient       ....      37.573 sec  ( 83.1%)
XC gradient                 ....       4.360 sec  (  9.6%)
           ************************************************************
           *              Shut down parallel processing               *
           ************************************************************
------------------------------------------------------------------------------
                         ORCA GEOMETRY RELAXATION STEP
------------------------------------------------------------------------------

Reading the OPT-File                    .... done
Getting information on internals        .... done
Copying old internal coords+grads       .... done
Making the new internal coordinates     .... (new redundants).... done
Validating the new internal coordinates .... (new redundants).... done
Calculating the B-matrix                .... done
Calculating the G,G- and P matrices     .... done
Transforming gradient to internals      .... done
Projecting the internal gradient        .... done
Number of atoms                         ....  19
Number of internal coordinates          ....  82
Current Energy                          ....  -327.194046672 Eh
Current gradient norm                   ....     0.000253862 Eh/bohr
Maximum allowed component of the step   ....  0.300
Current trust radius                    ....  0.300
Updating the Hessian (BFGS)             .... done
Forming the augmented Hessian           .... done
Diagonalizing the augmented Hessian     .... done
Last element of RFO vector              ....  0.999999053
Lowest eigenvalues of augmented Hessian:
 -0.000000301  0.012325812  0.012623824  0.014394459  0.024705601
Length of the computed step             ....  0.001376040
The final length of the internal step   ....  0.001376040
Converting the step to cartesian space:
 Initial RMS(Int)=    0.0001519582
Transforming coordinates:
 Iter   0:  RMS(Cart)=    0.0005113132 RMS(Int)=    1.6996070971
 Iter   1:  RMS(Cart)=    0.0000001541 RMS(Int)=    0.0000000989
 Iter   2:  RMS(Cart)=    0.0000000001 RMS(Int)=    0.0000000000
done
Storing new coordinates                 .... done

                                .--------------------.
          ----------------------|Geometry convergence|---------------------
          Item                value                 Tolerance   Converged
          -----------------------------------------------------------------
          Energy change      -0.00000047            0.00000100      YES
          RMS gradient        0.00002672            0.00003000      YES
          MAX gradient        0.00011225            0.00010000      NO
          RMS step            0.00015196            0.00060000      YES
          MAX step            0.00054115            0.00100000      YES
          ....................................................
          Max(Bonds)      0.0002      Max(Angles)    0.03
          Max(Dihed)        0.01      Max(Improp)    0.00
          -----------------------------------------------------------------

The optimization has not yet converged - more geometry cycles are needed


    ---------------------------------------------------------------------------
                         Redundant Internal Coordinates
                            (Angstroem and degrees)

        Definition                    Value    dE/dq     Step     New-Value
    ----------------------------------------------------------------------------
     1. B(C   1,C   0)                1.4844 -0.000019  0.0000    1.4844   
     2. B(C   2,C   1)                1.3280 -0.000007  0.0000    1.3280   
     3. B(O   3,C   1)                1.3789  0.000108 -0.0002    1.3787   
     4. B(C   4,O   3)                1.3867  0.000048 -0.0001    1.3866   
     5. B(C   5,C   4)                1.5155 -0.000000 -0.0000    1.5155   
     6. B(N   6,C   5)                1.5017  0.000029 -0.0001    1.5016   
     7. B(H   7,C   0)                1.0880 -0.000004  0.0000    1.0880   
     8. B(H   8,C   0)                1.0929  0.000004 -0.0000    1.0928   
     9. B(H   9,C   0)                1.0929  0.000004 -0.0000    1.0928   
    10. B(H  10,C   2)                1.0803 -0.000001  0.0000    1.0803   
    11. B(H  11,C   2)                1.0814 -0.000014  0.0001    1.0815   
    12. B(H  12,C   4)                1.1013 -0.000003 -0.0000    1.1013   
    13. B(H  13,C   4)                1.1013 -0.000003 -0.0000    1.1013   
    14. B(H  14,C   5)                1.0898 -0.000002  0.0000    1.0898   
    15. B(H  15,C   5)                1.0898 -0.000002  0.0000    1.0898   
    16. B(H  16,N   6)                1.0230  0.000001  0.0000    1.0230   
    17. B(H  17,N   6)                1.0221 -0.000003 -0.0000    1.0221   
    18. B(H  18,N   6)                1.0230  0.000001  0.0000    1.0230   
    19. A(C   1,C   0,H   7)          110.53  0.000033   -0.01    110.51   
    20. A(H   7,C   0,H   8)          108.84  0.000010   -0.01    108.83   
    21. A(H   8,C   0,H   9)          107.54  0.000003    0.01    107.55   
    22. A(C   1,C   0,H   9)          110.51 -0.000028    0.01    110.52   
    23. A(C   1,C   0,H   8)          110.51 -0.000028    0.01    110.52   
    24. A(H   7,C   0,H   9)          108.84  0.000010   -0.01    108.83   
    25. A(C   2,C   1,O   3)          123.79 -0.000047    0.01    123.81   
    26. A(C   0,C   1,C   2)          126.25  0.000112   -0.03    126.22   
    27. A(C   0,C   1,O   3)          109.96 -0.000065    0.02    109.97   
    28. A(H  10,C   2,H  11)          116.78  0.000046   -0.02    116.76   
    29. A(C   1,C   2,H  11)          124.11 -0.000096    0.03    124.14   
    30. A(C   1,C   2,H  10)          119.11  0.000051   -0.01    119.10   
    31. A(C   1,O   3,C   4)          117.39  0.000014    0.00    117.39   
    32. A(H  12,C   4,H  13)          107.84 -0.000012   -0.00    107.84   
    33. A(O   3,C   4,C   5)          104.68 -0.000047    0.02    104.70   
    34. A(C   5,C   4,H  13)          110.81  0.000029   -0.01    110.79   
    35. A(O   3,C   4,H  13)          111.37  0.000001    0.01    111.37   
    36. A(C   5,C   4,H  12)          110.81  0.000029   -0.01    110.79   
    37. A(O   3,C   4,H  12)          111.37  0.000001    0.01    111.37   
    38. A(C   4,C   5,N   6)          110.25  0.000023   -0.01    110.24   
    39. A(H  14,C   5,H  15)          109.15  0.000005    0.00    109.15   
    40. A(N   6,C   5,H  15)          107.38 -0.000009    0.00    107.39   
    41. A(C   4,C   5,H  15)          111.26 -0.000006    0.00    111.26   
    42. A(N   6,C   5,H  14)          107.38 -0.000009    0.00    107.39   
    43. A(C   4,C   5,H  14)          111.26 -0.000006    0.00    111.26   
    44. A(H  16,N   6,H  18)          107.47  0.000007   -0.00    107.47   
    45. A(C   5,N   6,H  18)          111.26 -0.000008    0.00    111.26   
    46. A(H  16,N   6,H  17)          107.65  0.000003   -0.00    107.65   
    47. A(C   5,N   6,H  17)          111.36  0.000004   -0.00    111.36   
    48. A(H  17,N   6,H  18)          107.65  0.000003   -0.00    107.65   
    49. A(C   5,N   6,H  16)          111.26 -0.000008    0.00    111.26   
    50. D(C   2,C   1,C   0,H   7)     -0.00 -0.000000    0.00      0.00   
    51. D(O   3,C   1,C   0,H   9)    -59.45  0.000016   -0.01    -59.47   
    52. D(O   3,C   1,C   0,H   8)     59.45 -0.000016    0.01     59.47   
    53. D(O   3,C   1,C   0,H   7)    180.00 -0.000000    0.00    180.00   
    54. D(C   2,C   1,C   0,H   9)    120.55  0.000016   -0.01    120.53   
    55. D(C   2,C   1,C   0,H   8)   -120.55 -0.000016    0.01   -120.53   
    56. D(H  10,C   2,C   1,C   0)     -0.00 -0.000000    0.00      0.00   
    57. D(H  11,C   2,C   1,O   3)      0.00  0.000000   -0.00     -0.00   
    58. D(H  11,C   2,C   1,C   0)    180.00 -0.000000    0.00    180.00   
    59. D(H  10,C   2,C   1,O   3)   -180.00  0.000000   -0.00   -180.00   
    60. D(C   4,O   3,C   1,C   2)      0.00  0.000000   -0.00     -0.00   
    61. D(C   4,O   3,C   1,C   0)   -180.00  0.000000   -0.00   -180.00   
    62. D(H  12,C   4,O   3,C   1)     60.21 -0.000007    0.00     60.22   
    63. D(C   5,C   4,O   3,C   1)    180.00 -0.000000    0.00    180.00   
    64. D(H  13,C   4,O   3,C   1)    -60.21  0.000007   -0.00    -60.22   
    65. D(H  15,C   5,C   4,H  13)    178.87  0.000012   -0.01    178.86   
    66. D(H  15,C   5,C   4,O   3)    -60.97  0.000001   -0.00    -60.97   
    67. D(H  14,C   5,C   4,H  13)    -59.19  0.000011   -0.01    -59.20   
    68. D(H  14,C   5,C   4,H  12)   -178.87 -0.000012    0.01   -178.86   
    69. D(H  14,C   5,C   4,O   3)     60.97 -0.000001    0.00     60.97   
    70. D(N   6,C   5,C   4,H  13)     59.84  0.000011   -0.01     59.83   
    71. D(H  15,C   5,C   4,H  12)     59.19 -0.000011    0.01     59.20   
    72. D(N   6,C   5,C   4,H  12)    -59.84 -0.000011    0.01    -59.83   
    73. D(N   6,C   5,C   4,O   3)    180.00  0.000000   -0.00    180.00   
    74. D(H  17,N   6,C   5,H  15)     58.64 -0.000002    0.00     58.64   
    75. D(H  17,N   6,C   5,H  14)    -58.64  0.000002   -0.00    -58.64   
    76. D(H  17,N   6,C   5,C   4)    180.00 -0.000000    0.00    180.00   
    77. D(H  16,N   6,C   5,H  15)    178.74 -0.000001    0.00    178.74   
    78. D(H  16,N   6,C   5,H  14)     61.46  0.000002   -0.00     61.46   
    79. D(H  18,N   6,C   5,C   4)     59.90 -0.000001    0.00     59.90   
    80. D(H  16,N   6,C   5,C   4)    -59.90  0.000001   -0.00    -59.90   
    81. D(H  18,N   6,C   5,H  15)    -61.46 -0.000002    0.00    -61.46   
    82. D(H  18,N   6,C   5,H  14)   -178.74  0.000001   -0.00   -178.74   
    ----------------------------------------------------------------------------

         *************************************************************
         *                GEOMETRY OPTIMIZATION CYCLE   3            *
         *************************************************************
---------------------------------
CARTESIAN COORDINATES (ANGSTROEM)
---------------------------------
  C      2.386568   -1.543885   -0.000001
  C      0.915298   -1.346637    0.000001
  C     -0.004767   -2.304336    0.000001
  O      0.620676    0.000245    0.000001
  C     -0.718358    0.360368    0.000000
  C     -0.708891    1.875792    0.000001
  N     -2.114470    2.404168   -0.000001
  H      2.629029   -2.604542   -0.000002
  H      2.835347   -1.079431    0.881583
  H      2.835345   -1.079430   -0.881585
  H      0.312025   -3.337158    0.000000
  H     -1.070784   -2.121886    0.000002
  H     -1.238282   -0.027345    0.890103
  H     -1.238280   -0.027345   -0.890103
  H     -0.213599    2.267825   -0.888059
  H     -0.213601    2.267824    0.888062
  H     -2.629907    2.087160   -0.824842
  H     -2.127986    3.426145   -0.000000
  H     -2.629909    2.087160    0.824839

----------------------------
CARTESIAN COORDINATES (A.U.)
----------------------------
  NO LB      ZA    FRAG    MASS        X           Y           Z
   0 C     6.0000    0    12.011          4.509960519264138         -2.917519885033898         -0.000001535492891
   1 C     6.0000    0    12.011          1.729663434211453         -2.544775744201918          0.000001186249088
   2 C     6.0000    0    12.011         -0.009009042950808         -4.354564238310679          0.000001976123176
   3 O     8.0000    0    15.999          1.172907629602994          0.000462473843603          0.000002004110620
   4 C     6.0000    0    12.011         -1.357500438787394          0.680996368826837          0.000000436673470
   5 C     6.0000    0    12.011         -1.339609124398468          3.544732784421162          0.000001410247755
   6 N     7.0000    0    14.007         -3.995769630300369          4.543218362161864         -0.000001350945062
   7 H     1.0000    0     1.008          4.968144451076472         -4.921871247034634         -0.000003294242574
   8 H     1.0000    0     1.008          5.358029057135356         -2.039829212894762          1.665950105329525
   9 H     1.0000    0     1.008          5.358025952591142         -2.039827032370926         -1.665953631091873
  10 H     1.0000    0     1.008          0.589642073039611         -6.306315525438611          0.000000896656309
  11 H     1.0000    0     1.008         -2.023487960291790         -4.009783058745093          0.000003856936393
  12 H     1.0000    0     1.008         -2.340013410843128         -0.051675386780842          1.682049966948788
  13 H     1.0000    0     1.008         -2.340010699932146         -0.051674106005764         -1.682051222437087
  14 H     1.0000    0     1.008         -0.403644292001655          4.285567255759795         -1.678188658261092
  15 H     1.0000    0     1.008         -0.403648071469493          4.285566214846976          1.678194027916523
  16 H     1.0000    0     1.008         -4.969804851300577          3.944161542281247         -1.558726087864335
  17 H     1.0000    0     1.008         -4.021310317670078          6.474475983203901         -0.000000800630102
  18 H     1.0000    0     1.008         -4.969808529016212          3.944160591300263          1.558720713773367

--------------------------------
INTERNAL COORDINATES (ANGSTROEM)
--------------------------------
 C      0   0   0   0.000000     0.000     0.000
 C      1   0   0   1.484433     0.000     0.000
 C      2   1   0   1.328047   126.216     0.000
 O      2   1   3   1.378729   109.975   180.000
 C      4   2   1   1.386615   117.392   180.000
 C      5   4   2   1.515454   104.695   180.000
 N      6   5   4   1.501611   110.244   180.000
 H      1   2   3   1.088017   110.512     0.000
 H      1   2   3   1.092845   110.520   239.467
 H      1   2   3   1.092845   110.520   120.533
 H      3   2   1   1.080314   119.096     0.000
 H      3   2   1   1.081517   124.140   180.000
 H      5   4   2   1.101328   111.374    60.216
 H      5   4   2   1.101328   111.374   299.784
 H      6   5   4   1.089795   111.258    60.972
 H      6   5   4   1.089795   111.258   299.028
 H      7   6   5   1.023002   111.259   300.098
 H      7   6   5   1.022067   111.360   180.000
 H      7   6   5   1.023002   111.259    59.902

---------------------------
INTERNAL COORDINATES (A.U.)
---------------------------
 C      0   0   0   0.000000     0.000     0.000
 C      1   0   0   2.805172     0.000     0.000
 C      2   1   0   2.509645   126.216     0.000
 O      2   1   3   2.605420   109.975   180.000
 C      4   2   1   2.620323   117.392   180.000
 C      5   4   2   2.863792   104.695   180.000
 N      6   5   4   2.837633   110.244   180.000
 H      1   2   3   2.056054   110.512     0.000
 H      1   2   3   2.065177   110.520   239.467
 H      1   2   3   2.065177   110.520   120.533
 H      3   2   1   2.041499   119.096     0.000
 H      3   2   1   2.043771   124.140   180.000
 H      5   4   2   2.081209   111.374    60.216
 H      5   4   2   2.081209   111.374   299.784
 H      6   5   4   2.059414   111.258    60.972
 H      6   5   4   2.059414   111.258   299.028
 H      7   6   5   1.933193   111.259   300.098
 H      7   6   5   1.931427   111.360   180.000
 H      7   6   5   1.933193   111.259    59.902



           ************************************************************
           *        Program running with 8 parallel MPI-processes     *
           *              working on a common directory               *
           ************************************************************
           ************************************************************
           *              Shut down parallel processing               *
           ************************************************************


           ************************************************************
           *        Program running with 8 parallel MPI-processes     *
           *              working on a common directory               *
           ************************************************************

Diagonalization of the overlap matrix:
Smallest eigenvalue                        ... 1.292e-04
Time for diagonalization                   ...    0.923 sec
Threshold for overlap eigenvalues          ... 1.000e-08
Number of eigenvalues below threshold      ... 0
Time for construction of square roots      ...    0.037 sec
Producing symmetrization matrix            ... done (   0.030 sec)
Total time needed                          ...    0.991 sec

Warning: Geometry matches/Basis set matches and symmetry is to be used
         We proceed in good trust that the input orbitals and irreps are correct
Irrep occupations for operator 0
    A' -   22
    A" -    6
-------------------
DFT GRID GENERATION
-------------------

General Integration Accuracy     IntAcc      ...  4.340
Radial Grid Type                 RadialGrid  ... Gauss-Chebyshev
Angular Grid (max. acc.)         AngularGrid ... Lebedev-194
Angular grid pruning method      GridPruning ... 3 (G Style)
Weight generation scheme         WeightScheme... Becke
Basis function cutoff            BFCut       ...    1.0000e-11
Integration weight cutoff        WCut        ...    1.0000e-14
Grids for H and He will be reduced by one unit

# of grid points (after initial pruning)     ...  41422 (   0.0 sec)
# of grid points (after weights+screening)   ...  38058 (   0.3 sec)
nearest neighbour list constructed           ...    0.0 sec
Grid point re-assignment to atoms done       ...    0.0 sec
Grid point division into batches done        ...    0.1 sec
Reduced shell lists constructed in    0.3 sec

Total number of grid points                  ...    38058
Total number of batches                      ...      602
Average number of points per batch           ...       63
Average number of grid points per atom       ...     2003
Average number of shells per batch           ...    88.88 (71.11%)
Average number of basis functions per batch  ...   211.12 (73.05%)
Average number of large shells per batch     ...    71.69 (80.65%)
Average number of large basis fcns per batch ...   172.08 (81.51%)
Maximum spatial batch extension              ...   3.25,  3.34,  4.36 au
Average spatial batch extension              ...   0.18,  0.18,  0.19 au

Time for grid setup =    1.227 sec

--------------
SCF ITERATIONS
--------------
ITER       Energy         Delta-E        Max-DP      RMS-DP      [F,P]     Damp
               ***  Starting incremental Fock matrix formation  ***
                      *** Initiating the SOSCF procedure ***
                      *** Re-Reading the Fockian *** 
                      *** Removing any level shift *** 
ITER      Energy       Delta-E        Grad      Rot      Max-DP    RMS-DP
  0   -327.19435043 -327.1943504345  0.000038  0.000038  0.000089  0.000003
               *** Restarting incremental Fock matrix formation ***
  1   -327.19435065  -0.0000002189  0.000016  0.000322  0.000130  0.000002
  2   -327.19435050   0.0000001507  0.000166  0.000402  0.000183  0.000003
  3   -327.19435063  -0.0000001307  0.000043  0.000197  0.000240  0.000005
  4   -327.19435041   0.0000002271  0.000099  0.000165  0.000206  0.000005
  5   -327.19435066  -0.0000002521  0.000008  0.000136  0.000115  0.000003
  6   -327.19435064   0.0000000192  0.000031  0.000139  0.000107  0.000002
  7   -327.19435066  -0.0000000209  0.000008  0.000103  0.000067  0.000001
  8   -327.19435065   0.0000000054  0.000020  0.000081  0.000055  0.000001
  9   -327.19435066  -0.0000000061  0.000004  0.000046  0.000028  0.000001
 10   -327.19435066   0.0000000020  0.000009  0.000036  0.000022  0.000001
                  ***Gradient check signals convergence***
              ***Rediagonalizing the Fockian in SOSCF/NRSCF***

               *****************************************************
               *                     SUCCESS                       *
               *           SCF CONVERGED AFTER  11 CYCLES          *
               *****************************************************

Setting up the final grid:

General Integration Accuracy     IntAcc      ...  5.010
Radial Grid Type                 RadialGrid  ... Gauss-Chebyshev
Angular Grid (max. acc.)         AngularGrid ... Lebedev-434
Angular grid pruning method      GridPruning ... 3 (G Style)
Weight generation scheme         WeightScheme... Becke
Basis function cutoff            BFCut       ...    1.0000e-11
Integration weight cutoff        WCut        ...    1.0000e-14
Grids for H and He will be reduced by one unit

# of grid points (after initial pruning)     ... 155226 (   0.0 sec)
# of grid points (after weights+screening)   ... 141059 (   5.5 sec)
nearest neighbour list constructed           ...    0.0 sec
Grid point re-assignment to atoms done       ...    0.0 sec
Grid point division into batches done        ...    0.8 sec
Reduced shell lists constructed in    1.1 sec

Total number of grid points                  ...   141059
Total number of batches                      ...     2214
Average number of points per batch           ...       63
Average number of grid points per atom       ...     7424
Average number of shells per batch           ...    86.13 (68.90%)
Average number of basis functions per batch  ...   203.87 (70.54%)
Average number of large shells per batch     ...    68.05 (79.01%)
Average number of large basis fcns per batch ...   162.34 (79.63%)
Maximum spatial batch extension              ...   2.41,  2.23,  4.17 au
Average spatial batch extension              ...   0.11,  0.11,  0.12 au

Final grid set up in    8.7 sec
Final integration                            ... done (   1.3 sec)
Change in XC energy                          ...     0.000303798
Integrated number of electrons               ...    56.000006562
Previous integrated no of electrons          ...    55.998877588
Total Energy       :         -327.19404686 Eh           -8903.40266 eV
  Last Energy change         ...   -1.8308e-09  Tolerance :   1.0000e-08
  Last MAX-Density change    ...    6.2483e-06  Tolerance :   1.0000e-07
             **** THE GBW FILE WAS UPDATED (5225_+.gbw) ****
             **** DENSITY FILE WAS UPDATED (5225_+.scfp.tmp) ****
             **** ENERGY FILE WAS UPDATED (5225_+.en.tmp) ****
Total SCF time: 0 days 0 hours 1 min 37 sec 
           ************************************************************
           *              Shut down parallel processing               *
           ************************************************************

-------------------------   --------------------
FINAL SINGLE POINT ENERGY      -327.194046862803
-------------------------   --------------------



           ************************************************************
           *        Program running with 8 parallel MPI-processes     *
           *              working on a common directory               *
           ************************************************************
------------------------------------------------------------------------------
                         ORCA SCF GRADIENT CALCULATION
------------------------------------------------------------------------------

Gradient of the Kohn-Sham DFT energy:
Kohn-Sham wavefunction type      ... RKS
Hartree-Fock exchange scaling    ...    0.250
Number of operators              ...    1
Number of atoms                  ...   19
Basis set dimensions             ...  289
Integral neglect threshold       ... 2.5e-11
Integral primitive cutoff        ... 2.5e-12

Nuclear repulsion gradient       ... done
One Electron Gradient            ... done
Pre-screening matrix             ... done
Starting the two electron gradient:
Two electron gradient done
Exchange-correlation gradient    ... done

------------------
CARTESIAN GRADIENT
------------------

   1   C   :    0.000006263    0.000029887   -0.000000050
   2   C   :    0.000003134   -0.000026610   -0.000000040
   3   C   :    0.000035971   -0.000045208    0.000000108
   4   O   :    0.000000596    0.000024104    0.000000470
   5   C   :   -0.000035340    0.000013016   -0.000000225
   6   C   :   -0.000000974   -0.000016450    0.000000160
   7   N   :    0.000013163    0.000010009   -0.000000019
   8   H   :    0.000007019   -0.000013022   -0.000000143
   9   H   :   -0.000011048   -0.000001328   -0.000013211
  10   H   :   -0.000011259   -0.000001134    0.000013108
  11   H   :   -0.000001292   -0.000000828   -0.000000074
  12   H   :   -0.000024925    0.000029987    0.000000138
  13   H   :    0.000011048    0.000008299   -0.000014944
  14   H   :    0.000011262    0.000008388    0.000014763
  15   H   :   -0.000001765   -0.000001324   -0.000005525
  16   H   :   -0.000002073   -0.000001394    0.000005756
  17   H   :   -0.000002290   -0.000004643   -0.000010605
  18   H   :    0.000005161   -0.000007016    0.000000059
  19   H   :   -0.000002652   -0.000004731    0.000010276

[...]
     18      -0.000011   0.018541   0.001209  -0.000044  -0.000000   0.000001
     19      -0.000025   0.045143  -0.002725   0.000510   0.000000   0.000005
     20       0.047683   0.000028  -0.000001   0.000000   0.000754   0.000000
     21      -0.000000   0.000210  -0.219468   0.000247   0.000000   0.079632
     22       0.000000   0.000143  -0.062734   0.001126  -0.000000  -0.384834
     23       0.000351   0.000000  -0.000007  -0.000000  -0.000026   0.000005
     24       0.000228  -0.000490   0.159739   0.000200   0.000065   0.257639
     25      -0.000171   0.000005   0.067215   0.001264   0.000294   0.272461
     26      -0.000015   0.000250  -0.074848   0.001769   0.000278   0.529878
     27      -0.000227  -0.000491   0.159768   0.000199  -0.000064   0.257621
     28       0.000172   0.000005   0.067208   0.001262  -0.000293   0.272407
     29      -0.000014  -0.000250   0.074848  -0.001768   0.000276  -0.529769
     30      -0.000003   0.004559  -0.446556  -0.002187  -0.000000  -0.002817
     31       0.000000  -0.000145   0.120263  -0.002899  -0.000000   0.009952
     32       0.000091   0.000001  -0.000010   0.000002   0.001247  -0.000001
     33       0.000001  -0.000612   0.231623   0.013608  -0.000002   0.006863
     34      -0.000004   0.005352  -0.398596  -0.003963   0.000001  -0.002292
     35      -0.000076   0.000005   0.000013  -0.000001  -0.001654   0.000001
     36      -0.008769  -0.016293   0.036995  -0.316290   0.325929   0.001047
     37       0.004967  -0.008574  -0.022440  -0.239999   0.258783   0.000171
     38       0.004321  -0.006010   0.025464   0.582763  -0.565095  -0.001358
     39       0.008779  -0.016281   0.036997  -0.316284  -0.325981   0.001048
     40      -0.004966  -0.008581  -0.022433  -0.239994  -0.258819   0.000173
     41       0.004321   0.006015  -0.025468  -0.582678  -0.565143   0.001360
     42      -0.041073   0.037213   0.001689   0.010350  -0.027217  -0.000675
     43       0.014876  -0.014683   0.009345   0.004923  -0.013716  -0.000364
     44       0.003207   0.000344  -0.002218  -0.019420   0.043723   0.001046
     45       0.041039   0.037249   0.001694   0.010348   0.027211  -0.000668
     46      -0.014840  -0.014691   0.009345   0.004917   0.013711  -0.000359
     47       0.003191  -0.000341   0.002215   0.019414   0.043708  -0.001034
     48      -0.143926  -0.349497  -0.014924  -0.003862  -0.006218   0.000045
     49       0.460790  -0.399013  -0.001620   0.003758   0.002415  -0.000039
     50      -0.058524   0.386424   0.011217  -0.003766  -0.004807   0.000057
     51      -0.000222   0.361125   0.017419  -0.003823  -0.000000  -0.000033
     52      -0.000025   0.032031  -0.003669  -0.000255   0.000000   0.000066
     53      -0.721708  -0.000422   0.000003   0.000002  -0.002781   0.000000
     54       0.144322  -0.349343  -0.014922  -0.003862   0.006218   0.000045
     55      -0.460327  -0.399560  -0.001615   0.003758  -0.002415  -0.000039
     56      -0.058076  -0.386469  -0.011215   0.003767  -0.004809  -0.000058
                 48         49         50         51         52         53    
      0       0.000107  -0.000007  -0.000282  -0.000000  -0.000870   0.000049
      1      -0.000097   0.000006   0.091603  -0.000051   0.004468   0.002199
      2      -0.000010   0.091741  -0.000007   0.000091  -0.000000  -0.000000
      3      -0.000241   0.000001   0.001931  -0.000001  -0.005800  -0.001164
      4       0.000123   0.000001   0.002167  -0.000001  -0.006312   0.001442
      5      -0.000000   0.000969   0.000000  -0.000122   0.000000  -0.000000
      6      -0.000064  -0.000000  -0.001146   0.000001   0.052930  -0.069196
      7      -0.000047  -0.000000  -0.004518   0.000003   0.045565   0.070676
      8      -0.000001   0.000118   0.000000   0.000002   0.000001  -0.000002
      9       0.000002  -0.000000   0.000215  -0.000000   0.000272  -0.000070
     10       0.000012  -0.000000  -0.000460   0.000000  -0.000414  -0.000932
     11       0.000000  -0.000092  -0.000000  -0.000159  -0.000000  -0.000000
     12       0.001740   0.000000   0.000255  -0.000000   0.000497  -0.000686
     13       0.000603   0.000000  -0.000078   0.000000  -0.000047  -0.000186
     14      -0.000002  -0.000044   0.000004   0.007504  -0.000000   0.000000
     15       0.053336   0.000006   0.000087   0.000006  -0.000184   0.000105
     16       0.042772   0.000005   0.000053   0.000004   0.000042   0.000001
     17      -0.000007  -0.000068   0.000053   0.096937  -0.000000  -0.000000
     18      -0.001789  -0.000000   0.000008  -0.000001  -0.000019   0.000027
     19      -0.001421  -0.000000  -0.000016  -0.000000   0.000026  -0.000046
     20      -0.000001   0.000005  -0.000002  -0.003470  -0.000000   0.000000
     21      -0.000522   0.000022   0.203674  -0.000112   0.009494   0.006994
     22       0.001891  -0.000101  -0.896159   0.000492  -0.047944  -0.024261
     23      -0.000002   0.018253   0.000006   0.000054   0.000000   0.000000
     24      -0.000290  -0.293298  -0.109892  -0.000143  -0.000653  -0.001964
     25      -0.000242  -0.307544  -0.100430  -0.000207  -0.001647  -0.002408
     26      -0.000584  -0.561217  -0.223089  -0.000339  -0.005350  -0.003341
     27      -0.000353   0.293352  -0.109945   0.000270  -0.000656  -0.001966
     28      -0.000308   0.307567  -0.100480   0.000323  -0.001650  -0.002410
     29       0.000707  -0.561269   0.223165  -0.000598   0.005355   0.003344
     30      -0.000133   0.000001  -0.015887   0.000009   0.196460   0.219788
     31      -0.000402  -0.000001   0.048040  -0.000028  -0.597876  -0.741836
     32      -0.000001  -0.000264  -0.000000   0.000346   0.000010   0.000008
     33       0.001159   0.000001   0.021753  -0.000015  -0.758977   0.616378
     34      -0.000261  -0.000001  -0.005916   0.000004   0.142705  -0.104206
     35      -0.000001   0.000592   0.000001  -0.000310  -0.000029   0.000021
     36      -0.010717   0.000471  -0.001229   0.021906  -0.002348   0.002993
     37      -0.009943  -0.000046  -0.000039   0.022230  -0.003664   0.003051
     38       0.018116  -0.000198   0.001187  -0.042539   0.006054  -0.006414
     39      -0.010706  -0.000474  -0.001254  -0.021907  -0.002347   0.002993
     40      -0.009936   0.000043  -0.000064  -0.022233  -0.003664   0.003050
     41      -0.018096  -0.000204  -0.001233  -0.042539  -0.006050   0.006412
     42      -0.311013  -0.000346  -0.000165   0.316219   0.000018   0.000070
     43      -0.245596  -0.000218  -0.000251   0.256119  -0.000545   0.000545
     44       0.583011   0.000560   0.000481  -0.571297   0.000287  -0.000311
     45      -0.311017   0.000277  -0.000512  -0.316284   0.000020   0.000070
     46      -0.245589   0.000164  -0.000532  -0.256165  -0.000544   0.000545
     47      -0.582906   0.000428  -0.001108  -0.571352  -0.000284   0.000311
     48       0.003753  -0.000046  -0.000099   0.002399   0.000050  -0.000009
     49       0.005663  -0.000027  -0.000083   0.010679   0.000273  -0.000254
     50       0.012439  -0.000041  -0.000182   0.018093   0.000304  -0.000159
     51       0.006994   0.000001   0.000061   0.000001  -0.000109   0.000104
     52       0.002017   0.000000   0.000319  -0.000001  -0.000429   0.000529
     53       0.000001   0.000023  -0.000001  -0.000998  -0.000000  -0.000000
     54       0.003754   0.000047  -0.000101  -0.002396   0.000048  -0.000009
     55       0.005663   0.000028  -0.000095  -0.010679   0.000272  -0.000254
     56      -0.012440  -0.000044   0.000202   0.018090  -0.000302   0.000159
                  54         55         56    
      0      -0.000006  -0.000000  -0.000010
      1       0.000017   0.000000  -0.000019
      2      -0.000000  -0.000008   0.000000
      3       0.000008   0.000000   0.000064
      4      -0.000359   0.000000   0.000005
      5       0.000000  -0.000015   0.000000
      6       0.000095   0.000000   0.000011
      7       0.000105   0.000000  -0.000012
      8       0.000001   0.000026  -0.000000
      9      -0.000164  -0.000000  -0.000116
     10       0.000448  -0.000000   0.000002
     11      -0.000000   0.000045   0.000000
     12      -0.000566   0.000000   0.000142
     13      -0.000537   0.000000   0.000539
     14       0.000000  -0.000875  -0.000000
     15       0.002260  -0.000000  -0.000829
     16       0.000241  -0.000000  -0.000485
     17      -0.000001   0.002599  -0.000000
     18       0.040705   0.000001  -0.025020
     19      -0.009097  -0.000014  -0.076704
     20      -0.000006   0.080719  -0.000013
     21      -0.000233  -0.000000   0.000013
     22       0.000375   0.000000   0.000116
     23      -0.000000  -0.000005   0.000000
     24       0.000103   0.000030  -0.000015
     25      -0.000023   0.000018   0.000006
     26       0.000111   0.000028  -0.000020
     27       0.000102  -0.000030  -0.000015
     28      -0.000023  -0.000018   0.000006
     29      -0.000112   0.000028   0.000021
     30       0.000025   0.000000  -0.000077
     31       0.000091  -0.000001   0.000135
     32       0.000001  -0.000011  -0.000000
     33      -0.000844  -0.000001  -0.000293
     34      -0.000060   0.000000  -0.000022
     35      -0.000000  -0.000232   0.000000
     36       0.001231  -0.002081  -0.001177
     37       0.000251  -0.000376  -0.000287
     38      -0.001861   0.004063   0.001641
     39       0.001230   0.002081  -0.001178
     40       0.000250   0.000376  -0.000287
     41       0.001860   0.004063  -0.001643
     42      -0.008035   0.010503   0.005345
     43      -0.001367   0.005043   0.003408
     44       0.007960  -0.016843  -0.006924
     45      -0.008037  -0.010505   0.005351
     46      -0.001367  -0.005044   0.003410
     47      -0.007960  -0.016843   0.006930
     48      -0.289981  -0.351541   0.175262
     49      -0.193973  -0.226791   0.101589
     50      -0.494273  -0.566671   0.299002
     51       0.010074  -0.000004  -0.001382
     52       0.515488   0.000195   0.855928
     53      -0.000012   0.016203  -0.000012
     54      -0.289986   0.351538   0.175105
     55      -0.193982   0.226795   0.101499
     56       0.494381  -0.566734  -0.298809


-----------
IR SPECTRUM
-----------

 Mode    freq (cm**-1)   T**2         TX         TY         TZ
-------------------------------------------------------------------
   6:        64.66   10.521759  ( -0.000890   0.000189  -3.243726)
   7:        87.73    0.809463  ( -0.000463   0.000470   0.899702)
   8:       133.58   10.412587  ( -1.381513  -2.916163  -0.000633)
   9:       155.00    3.039621  (  0.000505   0.000314  -1.743451)
  10:       177.37    0.194553  ( -0.000195   0.000476  -0.441082)
  11:       220.18    0.024478  (  0.000036   0.000024  -0.156454)
  12:       318.61    9.164498  ( -2.163143   2.117855   0.000246)
  13:       349.27    7.248261  (  2.072450  -1.718491  -0.000004)
  14:       470.49    5.817195  (  1.248087  -2.063849   0.000278)
  15:       513.04    2.998767  (  0.001652   0.000458  -1.731694)
  16:       546.53    7.960886  ( -2.553014   1.201251   0.000254)
  17:       725.09    1.364337  ( -0.001725  -0.002032   1.168045)
  18:       808.13    8.354451  ( -0.001971  -0.001136  -2.890406)
  19:       857.75   52.782940  (  0.000906   0.000190  -7.265187)
  20:       878.21   13.760017  ( -0.807869  -3.620409  -0.000358)
  21:       922.32   19.217408  (  0.808546  -4.308557  -0.000544)
  22:       940.92   12.784131  (  0.000810   0.000179  -3.575490)
  23:       966.52   51.094964  (  0.882453   7.093394   0.000307)
  24:      1007.70    8.756362  (  1.806735  -2.343517  -0.000020)
  25:      1019.06    3.597498  (  1.329033   1.353207  -0.000187)
  26:      1068.25    0.421737  (  0.000499   0.000094   0.649413)
  27:      1156.07   20.236662  (  4.160316  -1.711267  -0.000461)
  28:      1190.46   39.411732  ( -4.234367   4.634854  -0.000181)
  29:      1191.48    0.003261  (  0.038725  -0.041889  -0.002629)
  30:      1289.37    1.256917  ( -0.000098  -0.000701   1.121123)
  31:      1297.72  252.105744  (  7.288210 -14.106302  -0.000440)
  32:      1335.26    6.482967  (  0.000823   0.000670  -2.546167)
  33:      1369.60    3.513879  (  0.142517  -1.869109   0.000273)
  34:      1406.31   24.768522  (  3.561017  -3.476734   0.000197)
  35:      1442.00    2.504590  ( -1.279343   0.931596  -0.000585)
  36:      1448.94    7.164692  (  2.445947  -1.087215  -0.000010)
  37:      1463.74   12.172558  (  0.000743   0.000778   3.488919)
  38:      1479.45   14.818825  ( -1.240677  -3.644111   0.001121)
  39:      1496.20   11.503022  ( -2.396443  -2.400017   0.001032)
  40:      1511.26   99.867177  ( -8.243971   5.648373  -0.001583)
  41:      1521.60   53.385951  ( -7.157572   1.468032   0.001831)
  42:      1659.45   53.408105  (  0.000549   0.002701  -7.308084)
  43:      1664.99   39.299910  ( -1.384852  -6.114089  -0.003419)
  44:      1734.13  115.307698  ( -4.957449  -9.525303   0.000327)
  45:      2978.71   34.563553  (  5.540276  -1.966950  -0.000167)
  46:      3014.61   20.607813  ( -0.000184  -0.000581   4.539583)
  47:      3061.37    5.133553  ( -2.067684  -0.926411  -0.000248)
  48:      3112.22    0.122295  ( -0.049617   0.346169  -0.000004)
  49:      3123.62    3.957137  (  0.000635   0.000297   1.989255)
  50:      3174.76    3.428432  (  0.021026   1.851483  -0.000042)
  51:      3175.64    0.008761  ( -0.001422  -0.001563  -0.093578)
  52:      3196.13    7.336652  (  1.084137  -2.482196   0.000218)
  53:      3281.83    2.395015  ( -1.457142   0.521299   0.000049)
  54:      3419.84   50.507303  ( -6.278025   3.330721   0.000934)
  55:      3495.50   96.512986  ( -0.000950   0.001614  -9.824102)
  56:      3505.74  115.359795  (  2.622084  10.415588   0.001114)

The first frequency considered to be a vibration is 6
The total number of vibrations considered is 51


--------------------------
THERMOCHEMISTRY AT 298.15K
--------------------------

Temperature         ... 298.15 K
Pressure            ... 1.00 atm
Total Mass          ... 102.16 AMU

Throughout the following assumptions are being made:
  (1) The electronic state is orbitally nondegenerate
  (2) There are no thermally accessible electronically excited states
  (3) Hindered rotations indicated by low frequency modes) are not
      treated as such but are treated as vibrations and this may
      case some error
  (4) All equations used are the standard statistical mechanics
      equations for an ideal gas
  (5) All vibrations are strinctly harmonic


------------
INNER ENERGY
------------

The inner energy is: U= E(el) + E(ZPE) + E(vib) + E(rot) + E(trans)
    E(el)   - is the total energy from the electronic structure calculation
              = E(kin-el) + E(nuc-el) + E(el-el) + E(nuc-nuc)
    E(ZPE)  - the the zero temperature vibrational energy from the frequency calculation
    E(vib)  - the the finite temperature correction to E(ZPE) due to population
              of excietd vibrational states
    E(rot)  - is the rotational thermal energy
    E(trans)- is the translational thermal energy

Summary of contributions to the inner energy U:
Electronic energy                ...   -327.19404680 Eh
Zero point energy                ...      0.17411678 Eh     109.26 kcal/mol
Thermal vibrational correction   ...      0.00609438 Eh       3.82 kcal/mol
Thermal rotational correction    ...      0.00141627 Eh       0.89 kcal/mol
Thermal translational correction ...      0.00141627 Eh       0.89 kcal/mol
-----------------------------------------------------------------------
Total thermal energy                   -327.01100310 Eh


Summary of corrections to the electronic energy:
(perhaps to be used in another calculation)
Total thermal correction                  0.00892692 Eh       5.60 kcal/mol
Non-thermal (ZPE) correction              0.17411678 Eh     109.26 kcal/mol
-----------------------------------------------------------------------
Total correction                          0.18304370 Eh     114.86 kcal/mol


--------
ENTHALPY
--------

The enthalpy is H = U + kB*T
                kB is Boltzmann's constant
Total free energy                 ...   -327.01100310 Eh 
Thermal Enthalpy correction       ...      0.00094421 Eh       0.59 kcal/mol
-----------------------------------------------------------------------
Total Enthalpy                    ...   -327.01005889 Eh


-------
ENTROPY
-------

The entropy contributions are T*S = T*(S(el)+S(vib)+S(rot)+S(trans)
     S(el)   - electronic entropy
     S(vib)  - vibrational entropy
     S(rot)  - rotational entropy
     S(trans)- translational entropy
The entropies will be listed as mutliplied by the temperature to get
units of energy

Electronic entropy                ...      0.00000000 Eh      0.00 kcal/mol
Vibrational entropy               ...      0.01140075 Eh      7.15 kcal/mol
Rotational entropy                ...      0.01229257 Eh      7.71 kcal/mol
Translational entropy             ...      0.01890147 Eh     11.86 kcal/mol
-----------------------------------------------------------------------
Final entropy term                ...      0.04259478 Eh     26.73 kcal/mol


CAUTION: The rotational entropy is not quite correctly treated here
         because it includes a symmetry number that is not yet correctly
         implemented in ORCA!
For a nonlinear molecule the correct rotational entropy is:
    S(rot) = R*(ln(qrot/sn)+1.5)
    R    = 8.31441 J/mol/K = 1.987191683e-3 kcal/mol/K
    qrot = 301915.4065605
    sn is the rotational symmetry number. We have assumed 3 here
       if it is different for your molecule then you should correct
       the printed rotational entropy by manually evaluating the equation
       as given above

For convenience we print out the resulting values for sn=1 - 12:
 sn= 1  qrot/sn=  301915.4066 T*S(rot)=     8.36 kcal/mol T*S(tot)=    27.38 kcal/mol
 sn= 2  qrot/sn=  150957.7033 T*S(rot)=     7.95 kcal/mol T*S(tot)=    26.97 kcal/mol
 sn= 3  qrot/sn=  100638.4689 T*S(rot)=     7.71 kcal/mol T*S(tot)=    26.73 kcal/mol
 sn= 4  qrot/sn=   75478.8516 T*S(rot)=     7.54 kcal/mol T*S(tot)=    26.56 kcal/mol
 sn= 5  qrot/sn=   60383.0813 T*S(rot)=     7.41 kcal/mol T*S(tot)=    26.43 kcal/mol
 sn= 6  qrot/sn=   50319.2344 T*S(rot)=     7.30 kcal/mol T*S(tot)=    26.32 kcal/mol
 sn= 7  qrot/sn=   43130.7724 T*S(rot)=     7.21 kcal/mol T*S(tot)=    26.23 kcal/mol
 sn= 8  qrot/sn=   37739.4258 T*S(rot)=     7.13 kcal/mol T*S(tot)=    26.15 kcal/mol
 sn= 9  qrot/sn=   33546.1563 T*S(rot)=     7.06 kcal/mol T*S(tot)=    26.08 kcal/mol
 sn=10  qrot/sn=   30191.5407 T*S(rot)=     7.00 kcal/mol T*S(tot)=    26.02 kcal/mol
 sn=11  qrot/sn=   27446.8551 T*S(rot)=     6.94 kcal/mol T*S(tot)=    25.96 kcal/mol
 sn=12  qrot/sn=   25159.6172 T*S(rot)=     6.89 kcal/mol T*S(tot)=    25.91 kcal/mol


-------------------
GIBBS FREE ENTHALPY
-------------------

The Gibbs free enthalpy is G = H - T*S

Total enthalpy                    ...   -327.01005889 Eh 
Total entropy correction          ...     -0.04259478 Eh    -26.73 kcal/mol
-----------------------------------------------------------------------
Final Gibbs free enthalpy         ...   -327.05265367 Eh

For completeness - the Gibbs free enthalpy minus the electronic energy
G-E(el)                           ...      0.14139313 Eh     88.73 kcal/mol


Timings for individual modules:

Sum of individual times         ...     3165.102 sec (=  52.752 min)
GTO integral calculation        ...       10.234 sec (=   0.171 min)   0.3 %
SCF iterations                  ...      483.876 sec (=   8.065 min)  15.3 %
SCF Gradient evaluation         ...      138.158 sec (=   2.303 min)   4.4 %
Geometry relaxation             ...        0.362 sec (=   0.006 min)   0.0 %
Analytical frequency calculation...     2532.472 sec (=  42.208 min)  80.0 %
                             ****ORCA TERMINATED NORMALLY****
TOTAL RUN TIME: 0 days 0 hours 52 minutes 46 seconds 784 msec
