
                                 *****************
                                 * O   R   C   A *
                                 *****************

           --- An Ab Initio, DFT and Semiempirical electronic structure package ---

                  #######################################################
                  #                        -***-                        #
                  #  Department of molecular theory and spectroscopy    #
                  #              Directorship: Frank Neese              #
                  # Max Planck Institute for Chemical Energy Conversion #
                  #                  D-45470 Muelheim/Ruhr              #
                  #                       Germany                       #
                  #                                                     #
                  #                  All rights reserved                #
                  #                        -***-                        #
                  #######################################################


                         Program Version 3.0.3 - RELEASE   -


 With contributions from (in alphabetic order):
   Ute Becker             : Parallelization
   Dmytro Bykov           : SCF Hessian
   Dmitry Ganyushin       : Spin-Orbit,Spin-Spin,Magnetic field MRCI
   Andreas Hansen         : Spin unrestricted coupled pair/coupled cluster methods
   Dimitrios Liakos       : Extrapolation schemes; parallel MDCI
   Robert Izsak           : Overlap fitted RIJCOSX, COSX-SCS-MP3
   Christian Kollmar      : KDIIS, OOCD, Brueckner-CCSD(T), CCSD density
   Simone Kossmann        : Meta GGA functionals, TD-DFT gradient, OOMP2, MP2 Hessian
   Taras Petrenko         : DFT Hessian,TD-DFT gradient, ASA and ECA modules, normal mode analysis, Resonance Raman, ABS, FL, XAS/XES, NRVS
   Christoph Reimann      : Effective Core Potentials
   Michael Roemelt        : Restricted open shell CIS
   Christoph Riplinger    : Improved optimizer, TS searches, QM/MM, DLPNO-CCSD
   Barbara Sandhoefer     : DKH picture change effects
   Igor Schapiro          : Molecular dynamics
   Kantharuban Sivalingam : CASSCF convergence, NEVPT2
   Boris Wezisla          : Elementary symmetry handling
   Frank Wennmohs         : Technical directorship


 We gratefully acknowledge several colleagues who have allowed us to
 interface, adapt or use parts of their codes:
   Stefan Grimme, W. Hujo, H. Kruse, T. Risthaus : VdW corrections, initial TS optimization,
                                                   DFT functionals, gCP
   Ed Valeev                                     : LibInt (2-el integral package), F12 methods
   Garnet Chan, S. Sharma, R. Olivares           : DMRG
   Ulf Ekstrom                                   : XCFun DFT Library
   Mihaly Kallay                                 : mrcc  (arbitrary order and MRCC methods)
   Andreas Klamt, Michael Diedenhofen            : otool_cosmo (COSMO solvation model)
   Frank Weinhold                                : gennbo (NPA and NBO analysis)
   Christopher J. Cramer and Donald G. Truhlar   : smd solvation model


 Your calculation uses the libint2 library for the computation of 2-el integrals
 For citations please refer to: http://libint.valeyev.net

 This ORCA versions uses:
   CBLAS   interface :  Fast vector & matrix operations
   LAPACKE interface :  Fast linear algebra routines
   SCALAPACK package :  Parallel linear algebra routines


Your calculation utilizes the basis: Ahlrichs-TZV
Cite in your paper:
H - Kr: A. Schaefer, H. Horn and R. Ahlrichs, J. Chem. Phys. 97, 2571 (1992).

The def2-TZV basis will be loaded
Cite in your paper:
 	F. Weigend, R. Ahlrichs, Phys. Chem. Chem. Phys. 2005, 7, 3297.

================================================================================
                                        WARNINGS
                       Please study these warnings very carefully!
================================================================================
Now building the actual basis set
WARNING: Geometry optimizations can change the point-group symmetry!

WARNING: Geometry Optimization
  ===> : Switching off AutoStart
         For restart on a previous wavefunction, please use MOREAD


INFO   : the flag for use of LIBINT has been found!

================================================================================
                                       INPUT FILE
================================================================================
NAME = 5238_+.inp
|  1> ! NORI PBE0 def2-TZVP UseSym TightOPT Freq TightSCF Grid3 FinalGrid5 XYZFile
|  2> % pal
|  3>     nprocs 8
|  4> end
|  5> %method
|  6>     SymThresh 5.0e-2
|  7> end
|  8> % geom 
|  9>     MaxIter 10
| 10> end 
| 11> % maxcore 2000
| 12> % output
| 13>     printlevel mini
| 14>     print[ P_Basis ] 0
| 15>     print[ P_SCFInfo ] 1
| 16>     print[ P_SCFIterInfo ] 1
| 17>     print[ P_OrbEn ] 0
| 18>     print[ P_Cartesian ] 0
| 19> end
| 20> % elprop
| 21>     Dipole false
| 22> end
| 23> *xyz 1 1
| 24>  C        0.9772050179    -0.1177650025    -0.0553421643 
| 25>  C        2.4959265313    -0.1770020523    -0.0212094932 
| 26>  C        3.1093131268     0.7888553472     0.9764285256 
| 27>  O        2.6725557761     0.5183199375     2.3212314825 
| 28>  C        4.6341538848     0.7713994282     1.0184283520 
| 29>  C        5.2405729713    -0.4871268197     1.6085892121 
| 30>  N        4.8980434903    -0.5761189749     3.0695460956 
| 31>  H        0.5849381279    -0.7624473123    -0.8421635607 
| 32>  H        0.6213424322     0.8962644138    -0.2549511744 
| 33>  H        0.5252825752    -0.4639462594     0.8788919311 
| 34>  H        2.8923343888     0.0749171195    -1.0099550716 
| 35>  H        2.8194370907    -1.2011896683     0.1950398227 
| 36>  H        2.7985536137     1.8071276453     0.7153321489 
| 37>  H        1.7128932137     0.5649238996     2.3723564780 
| 38>  H        4.9937323390     1.6433795199     1.5749368129 
| 39>  H        5.0159820141     0.8821040875     0.0013437239 
| 40>  H        6.3264522408    -0.4984364501     1.5167746323 
| 41>  H        4.8471212591    -1.3907660628     1.1433968213 
| 42>  H        5.4117899871     0.1164153768     3.6140603334 
| 43>  H        5.0916868676    -1.4966857541     3.4611167113 
| 44>  H        3.8786830513    -0.3415924188     3.1335583805 
| 45> *
| 46> 
| 47>                          ****END OF INPUT****
================================================================================

The point group is C1 - hence turning off symmetry
If this is a round-off problem, please increase the symmetry
        detection tolerance (%method SymThresh)


                       *****************************
                       * Geometry Optimization Run *
                       *****************************

Geometry optimization settings:
Update method            Update   .... BFGS
Choice of coordinates    CoordSys .... Redundant Internals
Initial Hessian          InHess   .... Almoef's Model

Convergence Tolerances:
Energy Change            TolE     ....  1.0000e-06 Eh
Max. Gradient            TolMAXG  ....  1.0000e-04 Eh/bohr
RMS Gradient             TolRMSG  ....  3.0000e-05 Eh/bohr
Max. Displacement        TolMAXD  ....  1.0000e-03 bohr
RMS Displacement         TolRMSD  ....  6.0000e-04 bohr

------------------------------------------------------------------------------
                        ORCA OPTIMIZATION COORDINATE SETUP
------------------------------------------------------------------------------

The optimization will be done in new redundant internal coordinates
Making redundant internal coordinates   ...  (new redundants) done
Evaluating the initial hessian          ...  (Almloef) done
Evaluating the coordinates              ...  done
Calculating the B-matrix                .... done
Calculating the G-matrix                .... done
Diagonalizing the G-matrix              .... done
Small eigenvalue found = 1.855e-02
Small eigenvalue found = 2.729e-02
The first mode is                       ....   48
The number of degrees of freedom        ....   57

    -----------------------------------------------------------------
                    Redundant Internal Coordinates


    -----------------------------------------------------------------
         Definition                    Initial Value    Approx d2E/dq
    -----------------------------------------------------------------
      1. B(C   1,C   0)                  1.5203         0.387184   
      2. B(C   2,C   1)                  1.5180         0.390373   
      3. B(O   3,C   2)                  1.4396         0.466386   
      4. B(C   4,C   2)                  1.5255         0.379775   
      5. B(C   5,C   4)                  1.5165         0.392498   
      6. B(N   6,C   5)                  1.5032         0.369195   
      7. B(H   7,C   0)                  1.0902         0.359811   
      8. B(H   8,C   0)                  1.0930         0.356100   
      9. B(H   9,C   0)                  1.0940         0.354828   
     10. B(H  10,C   1)                  1.0946         0.354024   
     11. B(H  11,C   1)                  1.0956         0.352742   
     12. B(H  12,C   2)                  1.0962         0.352010   
     13. B(H  13,O   3)                  0.9622         0.515860   
     14. B(H  14,C   4)                  1.0951         0.353355   
     15. B(H  15,C   4)                  1.0920         0.357437   
     16. B(H  16,C   5)                  1.0898         0.360348   
     17. B(H  17,C   5)                  1.0898         0.360299   
     18. B(H  18,N   6)                  1.0198         0.417375   
     19. B(H  19,N   6)                  1.0190         0.418705   
     20. B(H  20,N   6)                  1.0479         0.376401   
     21. A(H   8,C   0,H   9)          108.3618         0.289659   
     22. A(C   1,C   0,H   8)          111.4378         0.325633   
     23. A(H   7,C   0,H   8)          107.4365         0.290293   
     24. A(C   1,C   0,H   7)          110.6467         0.326189   
     25. A(C   1,C   0,H   9)          112.4059         0.325442   
     26. A(H   7,C   0,H   9)          106.2934         0.290130   
     27. A(C   2,C   1,H  10)          107.5095         0.325760   
     28. A(C   0,C   1,H  10)          109.4220         0.325320   
     29. A(C   0,C   1,C   2)          113.1801         0.368350   
     30. A(C   2,C   1,H  11)          110.2275         0.325565   
     31. A(H  10,C   1,H  11)          106.6478         0.289126   
     32. A(C   0,C   1,H  11)          109.6232         0.325126   
     33. A(C   1,C   2,C   4)          114.5005         0.367131   
     34. A(C   4,C   2,H  12)          107.4908         0.323986   
     35. A(C   1,C   2,H  12)          108.6600         0.325454   
     36. A(C   1,C   2,O   3)          111.8243         0.377971   
     37. A(O   3,C   2,C   4)          105.9849         0.376176   
     38. A(O   3,C   2,H  12)          108.1232         0.333144   
     39. A(C   2,O   3,H  13)          110.0682         0.352101   
     40. A(H  14,C   4,H  15)          106.1269         0.289640   
     41. A(C   5,C   4,H  15)          107.8639         0.326566   
     42. A(C   2,C   4,H  15)          108.8260         0.324801   
     43. A(C   5,C   4,H  14)          109.3728         0.325949   
     44. A(C   2,C   4,H  14)          109.4553         0.324188   
     45. A(C   2,C   4,C   5)          114.8282         0.367473   
     46. A(N   6,C   5,H  17)          106.4688         0.321789   
     47. A(C   4,C   5,H  17)          112.1858         0.326995   
     48. A(N   6,C   5,H  16)          107.9573         0.321797   
     49. A(C   4,C   5,H  16)          111.9781         0.327002   
     50. A(H  16,C   5,H  17)          108.3697         0.290896   
     51. A(C   4,C   5,N   6)          109.6468         0.363421   
     52. A(H  19,N   6,H  20)          111.3196         0.295062   
     53. A(H  18,N   6,H  20)          107.7841         0.294914   
     54. A(C   5,N   6,H  20)          105.5314         0.321365   
     55. A(H  18,N   6,H  19)          108.2152         0.299938   
     56. A(C   5,N   6,H  19)          112.5610         0.327035   
     57. A(C   5,N   6,H  18)          111.3418         0.326863   
     58. D(H  10,C   1,C   0,H   7)     55.2719         0.011926   
     59. D(H  10,C   1,C   0,H   8)    -64.1983         0.011926   
     60. D(C   2,C   1,C   0,H   7)    175.1403         0.011926   
     61. D(C   2,C   1,C   0,H   9)    -66.1973         0.011926   
     62. D(H  11,C   1,C   0,H   8)    179.1724         0.011926   
     63. D(H  10,C   1,C   0,H   9)    173.9344         0.011926   
     64. D(C   2,C   1,C   0,H   8)     55.6701         0.011926   
     65. D(H  11,C   1,C   0,H   9)     57.3050         0.011926   
     66. D(H  11,C   1,C   0,H   7)    -61.3574         0.011926   
     67. D(C   4,C   2,C   1,C   0)   -179.0045         0.012114   
     68. D(C   4,C   2,C   1,H  10)    -58.0481         0.012114   
     69. D(O   3,C   2,C   1,H  11)    -62.7381         0.012114   
     70. D(O   3,C   2,C   1,H  10)   -178.6124         0.012114   
     71. D(O   3,C   2,C   1,C   0)     60.4312         0.012114   
     72. D(C   4,C   2,C   1,H  11)     57.8263         0.012114   
     73. D(H  12,C   2,C   1,H  11)    177.9933         0.012114   
     74. D(H  12,C   2,C   1,H  10)     62.1189         0.012114   
     75. D(H  12,C   2,C   1,C   0)    -58.8374         0.012114   
     76. D(H  13,O   3,C   2,H  12)     61.8005         0.017142   
     77. D(H  13,O   3,C   2,C   4)    176.8069         0.017142   
     78. D(H  13,O   3,C   2,C   1)    -57.7845         0.017142   
     79. D(H  15,C   4,C   2,H  12)    -69.6538         0.011496   
     80. D(H  15,C   4,C   2,O   3)    174.9085         0.011496   
     81. D(H  15,C   4,C   2,C   1)     51.1612         0.011496   
     82. D(H  14,C   4,C   2,H  12)     45.9197         0.011496   
     83. D(H  14,C   4,C   2,O   3)    -69.5180         0.011496   
     84. D(H  14,C   4,C   2,C   1)    166.7347         0.011496   
     85. D(C   5,C   4,C   2,H  12)    169.3595         0.011496   
     86. D(C   5,C   4,C   2,O   3)     53.9218         0.011496   
     87. D(C   5,C   4,C   2,C   1)    -69.8254         0.011496   
     88. D(N   6,C   5,C   4,C   2)    -66.4500         0.012241   
     89. D(H  17,C   5,C   4,H  14)    175.1119         0.012241   
     90. D(H  17,C   5,C   4,C   2)     51.6280         0.012241   
     91. D(H  16,C   5,C   4,H  15)     52.2291         0.012241   
     92. D(H  16,C   5,C   4,H  14)    -62.7747         0.012241   
     93. D(H  16,C   5,C   4,C   2)    173.7415         0.012241   
     94. D(N   6,C   5,C   4,H  15)    172.0375         0.012241   
     95. D(H  17,C   5,C   4,H  15)    -69.8844         0.012241   
     96. D(N   6,C   5,C   4,H  14)     57.0338         0.012241   
     97. D(H  20,N   6,C   5,H  17)    -76.5158         0.012505   
     98. D(H  20,N   6,C   5,C   4)     45.0612         0.012505   
     99. D(H  19,N   6,C   5,H  17)     45.0907         0.012505   
    100. D(H  19,N   6,C   5,H  16)    -71.0941         0.012505   
    101. D(H  19,N   6,C   5,C   4)    166.6678         0.012505   
    102. D(H  18,N   6,C   5,H  17)    166.8089         0.012505   
    103. D(H  20,N   6,C   5,H  16)    167.2994         0.012505   
    104. D(H  18,N   6,C   5,H  16)     50.6241         0.012505   
    105. D(H  18,N   6,C   5,C   4)    -71.6140         0.012505   
    -----------------------------------------------------------------

Number of atoms                         .... 21
Number of degrees of freedom            .... 105

         *************************************************************
         *                GEOMETRY OPTIMIZATION CYCLE   1            *
         *************************************************************


           ************************************************************
           *        Program running with 8 parallel MPI-processes     *
           *              working on a common directory               *
           ************************************************************
           ************************************************************
           *              Shut down parallel processing               *
           ************************************************************


           ************************************************************
           *        Program running with 8 parallel MPI-processes     *
           *              working on a common directory               *
           ************************************************************
------------
SCF SETTINGS
------------
Hamiltonian:
 Density Functional     Method          .... DFT(GTOs)
 Exchange Functional    Exchange        .... PBE
   PBE kappa parameter  XKappa          ....  0.804000
 Correlation Functional Correlation     .... PBE
 LDA part of GGA corr.  LDAOpt          .... PW91-LDA
 Gradients option       PostSCFGGA      .... off
 Hybrid DFT is turned on
   Fraction HF Exchange ScalHFX         ....  0.250000
   Scaling of DF-GGA-X  ScalDFX         ....  0.750000
   Scaling of DF-GGA-C  ScalDFC         ....  1.000000
   Scaling of DF-LDA-C  ScalLDAC        ....  1.000000
   Perturbative correction              ....  0.000000
   NL short-range parameter             ....  6.900000


General Settings:
 Integral files         IntName         .... 5238_+
 Hartree-Fock type      HFTyp           .... RHF
 Total Charge           Charge          ....    1
 Multiplicity           Mult            ....    1
 Number of Electrons    NEL             ....   58
 Basis Dimension        Dim             ....  301
 Nuclear Repulsion      ENuc            ....    351.9948414670 Eh

Convergence Acceleration:
 DIIS                   CNVDIIS         .... on
   Start iteration      DIISMaxIt       ....    12
   Startup error        DIISStart       ....  0.200000
   # of expansion vecs  DIISMaxEq       ....     5
   Bias factor          DIISBfac        ....   1.050
   Max. coefficient     DIISMaxC        ....  10.000
 Newton-Raphson         CNVNR           .... off
 SOSCF                  CNVSOSCF        .... on
   Start iteration      SOSCFMaxIt      ....   150
   Startup grad/error   SOSCFStart      ....  0.003300
 Level Shifting         CNVShift        .... on
   Level shift para.    LevelShift      ....    0.2500
   Turn off err/grad.   ShiftErr        ....    0.0010
 Zerner damping         CNVZerner       .... off
 Static damping         CNVDamp         .... on
   Fraction old density DampFac         ....    0.7000
   Max. Damping (<1)    DampMax         ....    0.9800
   Min. Damping (>=0)   DampMin         ....    0.0000
   Turn off err/grad.   DampErr         ....    0.1000
 Fernandez-Rico         CNVRico         .... off

SCF Procedure:
 Maximum # iterations   MaxIter         ....   125
 SCF integral mode      SCFMode         .... Direct
   Integral package                     .... LIBINT
 Reset frequeny         DirectResetFreq ....    20
 Integral Threshold     Thresh          ....  2.500e-11 Eh
 Primitive CutOff       TCut            ....  2.500e-12 Eh

Convergence Tolerance:
 Convergence Check Mode ConvCheckMode   .... Total+1el-Energy
 Energy Change          TolE            ....  1.000e-08 Eh
 1-El. energy change                    ....  1.000e-05 Eh
 Orbital Gradient       TolG            ....  1.000e-05
 Orbital Rotation angle TolX            ....  1.000e-05
 DIIS Error             TolErr          ....  5.000e-07


Diagonalization of the overlap matrix:
Smallest eigenvalue                        ... 1.405e-04
Time for diagonalization                   ...    0.800 sec
Threshold for overlap eigenvalues          ... 1.000e-08
Number of eigenvalues below threshold      ... 0
Time for construction of square roots      ...    0.028 sec
Total time needed                          ...    0.828 sec

-------------------
DFT GRID GENERATION
-------------------

General Integration Accuracy     IntAcc      ...  4.340
Radial Grid Type                 RadialGrid  ... Gauss-Chebyshev
Angular Grid (max. acc.)         AngularGrid ... Lebedev-194
Angular grid pruning method      GridPruning ... 3 (G Style)
Weight generation scheme         WeightScheme... Becke
Basis function cutoff            BFCut       ...    1.0000e-11
Integration weight cutoff        WCut        ...    1.0000e-14
Grids for H and He will be reduced by one unit

# of grid points (after initial pruning)     ...  44482 (   0.0 sec)
# of grid points (after weights+screening)   ...  40260 (   0.3 sec)
nearest neighbour list constructed           ...    0.0 sec
Grid point re-assignment to atoms done       ...    0.0 sec
Grid point division into batches done        ...    0.1 sec
Reduced shell lists constructed in    0.1 sec

Total number of grid points                  ...    40260
Total number of batches                      ...      639
Average number of points per batch           ...       63
Average number of grid points per atom       ...     1917
Average number of shells per batch           ...   103.57 (77.87%)
Average number of basis functions per batch  ...   240.21 (79.80%)
Average number of large shells per batch     ...    83.93 (81.03%)
Average number of large basis fcns per batch ...   193.75 (80.66%)
Maximum spatial batch extension              ...   2.05,  2.44,  2.28 au
Average spatial batch extension              ...   0.15,  0.15,  0.15 au

Time for grid setup =    1.143 sec

Loading Hartree-Fock densities                     ... done
Calculating cut-offs                               ... done
Setting up the integral package                    ... done
Initializing the effective Hamiltonian             ... done
Starting the Coulomb interaction                   ... done (   0.1 sec)
Reading the grid                                   ... done
Mapping shells                                     ... done
Starting the XC term evaluation                    ... done (   0.7 sec)
  promolecular density results
     # of electrons  =     58.990697490
     EX              =    -44.471839964
     EC              =     -1.946622648
     EX+EC           =    -46.418462612
Transforming the Hamiltonian                       ... done (   0.0 sec)
Diagonalizing the Hamiltonian                      ... done (   0.7 sec)
Back transforming the eigenvectors                 ... done (   0.0 sec)
Now organizing SCF variables                       ... done
--------------
SCF ITERATIONS
--------------
ITER       Energy         Delta-E        Max-DP      RMS-DP      [F,P]     Damp
               ***  Starting incremental Fock matrix formation  ***
  0   -328.2523053824   0.000000000000 0.03607917  0.00081442  0.2161789 0.7000
  1   -328.3430428280  -0.090737445690 0.01993139  0.00059563  0.0957620 0.7000
                               ***Turning on DIIS***
  2   -328.3813876738  -0.038344845749 0.03089173  0.00105346  0.0342976 0.0000
  3   -328.4389174588  -0.057529785021 0.01449694  0.00040583  0.0493347 0.0000
  4   -328.4523889691  -0.013471510304 0.00339737  0.00011804  0.0076730 0.0000
  5   -328.4528336955  -0.000444726413 0.00216661  0.00004939  0.0062885 0.0000
                      *** Initiating the SOSCF procedure ***
                           *** Shutting down DIIS ***
                      *** Re-Reading the Fockian *** 
                      *** Removing any level shift *** 
ITER      Energy       Delta-E        Grad      Rot      Max-DP    RMS-DP
  6   -328.45288424  -0.0000505400  0.000152  0.000152  0.000739  0.000020
               *** Restarting incremental Fock matrix formation ***
  7   -328.45288793  -0.0000036901  0.000044  0.000100  0.000458  0.000012
  8   -328.45288812  -0.0000001967  0.000056  0.000043  0.000128  0.000004
  9   -328.45288823  -0.0000001067  0.000012  0.000021  0.000076  0.000002
 10   -328.45288824  -0.0000000084  0.000004  0.000003  0.000012  0.000000
 11   -328.45288824  -0.0000000017  0.000003  0.000002  0.000011  0.000000
                  ***Gradient check signals convergence***
              ***Rediagonalizing the Fockian in SOSCF/NRSCF***

               *****************************************************
               *                     SUCCESS                       *
               *           SCF CONVERGED AFTER  12 CYCLES          *
               *****************************************************

Setting up the final grid:

General Integration Accuracy     IntAcc      ...  5.010
Radial Grid Type                 RadialGrid  ... Gauss-Chebyshev
Angular Grid (max. acc.)         AngularGrid ... Lebedev-434
Angular grid pruning method      GridPruning ... 3 (G Style)
Weight generation scheme         WeightScheme... Becke
Basis function cutoff            BFCut       ...    1.0000e-11
Integration weight cutoff        WCut        ...    1.0000e-14
Grids for H and He will be reduced by one unit

# of grid points (after initial pruning)     ... 168610 (   0.0 sec)
# of grid points (after weights+screening)   ... 150667 (   4.3 sec)
nearest neighbour list constructed           ...    0.0 sec
Grid point re-assignment to atoms done       ...    0.0 sec
Grid point division into batches done        ...    0.9 sec
Reduced shell lists constructed in    1.1 sec

Total number of grid points                  ...   150667
Total number of batches                      ...     2365
Average number of points per batch           ...       63
Average number of grid points per atom       ...     7175
Average number of shells per batch           ...   101.73 (76.49%)
Average number of basis functions per batch  ...   236.25 (78.49%)
Average number of large shells per batch     ...    81.35 (79.96%)
Average number of large basis fcns per batch ...   188.01 (79.58%)
Maximum spatial batch extension              ...   3.30,  6.56,  6.63 au
Average spatial batch extension              ...   0.10,  0.11,  0.11 au

Final grid set up in    7.9 sec
Final integration                            ... done (   1.8 sec)
Change in XC energy                          ...     0.000282301
Integrated number of electrons               ...    57.999944889
Previous integrated no of electrons          ...    57.999044986
Total Energy       :         -328.45260594 Eh           -8937.64979 eV
  Last Energy change         ...    6.5819e-10  Tolerance :   1.0000e-08
  Last MAX-Density change    ...    2.5485e-06  Tolerance :   1.0000e-07
             **** THE GBW FILE WAS UPDATED (5238_+.gbw) ****
             **** DENSITY FILE WAS UPDATED (5238_+.scfp.tmp) ****
             **** ENERGY FILE WAS UPDATED (5238_+.en.tmp) ****
Total SCF time: 0 days 0 hours 2 min 19 sec 
           ************************************************************
           *              Shut down parallel processing               *
           ************************************************************

-------------------------   --------------------
FINAL SINGLE POINT ENERGY      -328.452605937498
-------------------------   --------------------



           ************************************************************
           *        Program running with 8 parallel MPI-processes     *
           *              working on a common directory               *
           ************************************************************
------------------------------------------------------------------------------
                         ORCA SCF GRADIENT CALCULATION
------------------------------------------------------------------------------

Gradient of the Kohn-Sham DFT energy:
Kohn-Sham wavefunction type      ... RKS
Hartree-Fock exchange scaling    ...    0.250
Number of operators              ...    1
Number of atoms                  ...   21
Basis set dimensions             ...  301
Integral neglect threshold       ... 2.5e-11
Integral primitive cutoff        ... 2.5e-12

Nuclear repulsion gradient       ... done
One Electron Gradient            ... done
Pre-screening matrix             ... done
Starting the two electron gradient:
Two electron gradient done
Exchange-correlation gradient    ... done

------------------
CARTESIAN GRADIENT
------------------

   1   C   :    0.000099604    0.000083613   -0.000125935
   2   C   :   -0.000125197    0.000028583    0.000245753
   3   C   :   -0.000026665   -0.000199943   -0.000257141
   4   O   :   -0.000019160    0.000149457   -0.000184903
   5   C   :   -0.000047454    0.000006361    0.000124821
   6   C   :   -0.000265677   -0.000119956    0.000050137
   7   N   :    0.000173584    0.000146679   -0.000067774
   8   H   :    0.000079946    0.000048114    0.000050227
   9   H   :    0.000053560   -0.000081010   -0.000004625
  10   H   :   -0.000093720   -0.000030192   -0.000014100
  11   H   :    0.000008703   -0.000012252   -0.000013004
  12   H   :   -0.000042006    0.000058019    0.000026997
  13   H   :    0.000080305   -0.000026862   -0.000040407
  14   H   :   -0.000038398    0.000040813    0.000134004
  15   H   :   -0.000030340   -0.000125719   -0.000065895
  16   H   :    0.000086658    0.000053016    0.000095329
  17   H   :    0.000075405    0.000082526   -0.000028374
  18   H   :    0.000099276    0.000114401   -0.000006270
  19   H   :   -0.000082893   -0.000120981   -0.000006454
  20   H   :   -0.000031180   -0.000012852   -0.000024831
  21   H   :    0.000045649   -0.000081815    0.000112443

Norm of the cartesian gradient     ...    0.000789414
RMS gradient                       ...    0.000099457
MAX gradient                       ...    0.000265677

-------
TIMINGS
-------

Total SCF gradient time            ...       49.274 sec

One electron gradient       ....       0.279 sec  (  0.6%)
Prescreening matrices       ....       0.690 sec  (  1.4%)
Two electron gradient       ....      40.345 sec  ( 81.9%)
XC gradient                 ....       5.547 sec  ( 11.3%)
           ************************************************************
           *              Shut down parallel processing               *
           ************************************************************
------------------------------------------------------------------------------
                         ORCA GEOMETRY RELAXATION STEP
------------------------------------------------------------------------------

Reading the OPT-File                    .... done
Getting information on internals        .... done
Copying old internal coords+grads       .... done
Making the new internal coordinates     .... (new redundants).... done
Validating the new internal coordinates .... (new redundants).... done
Calculating the B-matrix                .... done
Calculating the G,G- and P matrices     .... done
Transforming gradient to internals      .... done
Projecting the internal gradient        .... done
Number of atoms                         ....  21
Number of internal coordinates          .... 105
Current Energy                          ....  -328.452605937 Eh
Current gradient norm                   ....     0.000789414 Eh/bohr
Maximum allowed component of the step   ....  0.300
Current trust radius                    ....  0.300
Evaluating the initial hessian          ....  (Almloef) done
Projecting the Hessian                  .... done
Forming the augmented Hessian           .... done
Diagonalizing the augmented Hessian     .... done
Last element of RFO vector              ....  0.999894630
Lowest eigenvalues of augmented Hessian:
 -0.000005471  0.011497284  0.011925994  0.012114350  0.012241084
Length of the computed step             ....  0.014518027
The final length of the internal step   ....  0.014518027
Converting the step to cartesian space:
 Initial RMS(Int)=    0.0014168143
Transforming coordinates:
 Iter   0:  RMS(Cart)=    0.0044359656 RMS(Int)=    0.0014167898
 Iter   1:  RMS(Cart)=    0.0000078816 RMS(Int)=    0.0000042391
 Iter   2:  RMS(Cart)=    0.0000000292 RMS(Int)=    0.0000000122
done
Storing new coordinates                 .... done

                                .--------------------.
          ----------------------|Geometry convergence|---------------------
          Item                value                 Tolerance   Converged
          -----------------------------------------------------------------
          RMS gradient        0.00008879            0.00003000      NO
          MAX gradient        0.00033823            0.00010000      NO
          RMS step            0.00141681            0.00060000      NO
          MAX step            0.00480221            0.00100000      NO
          ....................................................
          Max(Bonds)      0.0002      Max(Angles)    0.06
          Max(Dihed)        0.28      Max(Improp)    0.00
          -----------------------------------------------------------------

The optimization has not yet converged - more geometry cycles are needed


    ---------------------------------------------------------------------------
                         Redundant Internal Coordinates
                            (Angstroem and degrees)

        Definition                    Value    dE/dq     Step     New-Value
    ----------------------------------------------------------------------------
     1. B(C   1,C   0)                1.5203 -0.000158  0.0002    1.5205   
     2. B(C   2,C   1)                1.5180 -0.000138  0.0002    1.5182   
     3. B(O   3,C   2)                1.4396 -0.000135  0.0002    1.4398   
     4. B(C   4,C   2)                1.5255 -0.000107  0.0001    1.5257   
     5. B(C   5,C   4)                1.5165 -0.000002  0.0000    1.5166   
     6. B(N   6,C   5)                1.5032  0.000075 -0.0001    1.5031   
     7. B(H   7,C   0)                1.0902 -0.000102  0.0001    1.0904   
     8. B(H   8,C   0)                1.0930 -0.000091  0.0001    1.0932   
     9. B(H   9,C   0)                1.0940 -0.000029  0.0000    1.0941   
    10. B(H  10,C   1)                1.0946  0.000001 -0.0000    1.0946   
    11. B(H  11,C   1)                1.0956 -0.000075  0.0001    1.0957   
    12. B(H  12,C   2)                1.0962 -0.000082  0.0001    1.0963   
    13. B(H  13,O   3)                0.9622  0.000092 -0.0001    0.9621   
    14. B(H  14,C   4)                1.0951 -0.000146  0.0002    1.0954   
    15. B(H  15,C   4)                1.0920 -0.000101  0.0001    1.0922   
    16. B(H  16,C   5)                1.0898  0.000102 -0.0002    1.0897   
    17. B(H  17,C   5)                1.0898 -0.000124  0.0002    1.0900   
    18. B(H  18,N   6)                1.0198 -0.000139  0.0002    1.0200   
    19. B(H  19,N   6)                1.0190 -0.000010  0.0000    1.0190   
    20. B(H  20,N   6)                1.0479  0.000064 -0.0001    1.0479   
    21. A(H   8,C   0,H   9)          108.36 -0.000063    0.01    108.37   
    22. A(C   1,C   0,H   8)          111.44  0.000028   -0.01    111.43   
    23. A(H   7,C   0,H   8)          107.44  0.000008   -0.00    107.44   
    24. A(C   1,C   0,H   7)          110.65 -0.000048    0.01    110.66   
    25. A(C   1,C   0,H   9)          112.41  0.000121   -0.02    112.38   
    26. A(H   7,C   0,H   9)          106.29 -0.000055    0.02    106.31   
    27. A(C   2,C   1,H  10)          107.51 -0.000033    0.00    107.51   
    28. A(C   0,C   1,H  10)          109.42 -0.000028   -0.00    109.42   
    29. A(C   0,C   1,C   2)          113.18  0.000132   -0.03    113.16   
    30. A(C   2,C   1,H  11)          110.23 -0.000047    0.01    110.24   
    31. A(H  10,C   1,H  11)          106.65  0.000015    0.01    106.65   
    32. A(C   0,C   1,H  11)          109.62 -0.000046    0.01    109.63   
    33. A(C   1,C   2,C   4)          114.50  0.000221   -0.05    114.45   
    34. A(C   4,C   2,H  12)          107.49 -0.000095    0.04    107.53   
    35. A(C   1,C   2,H  12)          108.66 -0.000030   -0.00    108.66   
    36. A(C   1,C   2,O   3)          111.82  0.000058   -0.03    111.80   
    37. A(O   3,C   2,C   4)          105.98 -0.000163    0.03    106.01   
    38. A(O   3,C   2,H  12)          108.12 -0.000007    0.03    108.15   
    39. A(C   2,O   3,H  13)          110.07  0.000088   -0.01    110.05   
    40. A(H  14,C   4,H  15)          106.13  0.000024    0.02    106.15   
    41. A(C   5,C   4,H  15)          107.86 -0.000144    0.02    107.89   
    42. A(C   2,C   4,H  15)          108.83 -0.000023   -0.01    108.82   
    43. A(C   5,C   4,H  14)          109.37 -0.000064    0.01    109.38   
    44. A(C   2,C   4,H  14)          109.46 -0.000127    0.02    109.48   
    45. A(C   2,C   4,C   5)          114.83  0.000314   -0.06    114.77   
    46. A(N   6,C   5,H  17)          106.47 -0.000120    0.00    106.47   
    47. A(C   4,C   5,H  17)          112.19 -0.000015   -0.02    112.17   
    48. A(N   6,C   5,H  16)          107.96 -0.000114    0.03    107.99   
    49. A(C   4,C   5,H  16)          111.98 -0.000139    0.04    112.01   
    50. A(H  16,C   5,H  17)          108.37  0.000044    0.02    108.39   
    51. A(C   4,C   5,N   6)          109.65  0.000338   -0.06    109.58   
    52. A(H  19,N   6,H  20)          111.32 -0.000069    0.02    111.34   
    53. A(H  18,N   6,H  20)          107.78 -0.000067    0.00    107.79   
    54. A(C   5,N   6,H  20)          105.53  0.000170   -0.03    105.50   
    55. A(H  18,N   6,H  19)          108.22  0.000018   -0.00    108.21   
    56. A(C   5,N   6,H  19)          112.56 -0.000085    0.02    112.58   
    57. A(C   5,N   6,H  18)          111.34  0.000034   -0.01    111.33   
    58. D(H  10,C   1,C   0,H   7)     55.27 -0.000013    0.02     55.29   
    59. D(H  10,C   1,C   0,H   8)    -64.20 -0.000010    0.02    -64.18   
    60. D(C   2,C   1,C   0,H   7)    175.14  0.000012    0.00    175.14   
    61. D(C   2,C   1,C   0,H   9)    -66.20 -0.000010    0.02    -66.18   
    62. D(H  11,C   1,C   0,H   8)    179.17  0.000014    0.01    179.18   
    63. D(H  10,C   1,C   0,H   9)    173.93 -0.000035    0.03    173.97   
    64. D(C   2,C   1,C   0,H   8)     55.67  0.000016    0.00     55.67   
    65. D(H  11,C   1,C   0,H   9)     57.30 -0.000012    0.02     57.32   
    66. D(H  11,C   1,C   0,H   7)    -61.36  0.000011    0.01    -61.35   
    67. D(C   4,C   2,C   1,C   0)   -179.00 -0.000016    0.01   -178.99   
    68. D(C   4,C   2,C   1,H  10)    -58.05  0.000009   -0.00    -58.05   
    69. D(O   3,C   2,C   1,H  11)    -62.74 -0.000007    0.04    -62.70   
    70. D(O   3,C   2,C   1,H  10)   -178.61  0.000018    0.02   -178.59   
    71. D(O   3,C   2,C   1,C   0)     60.43 -0.000007    0.04     60.47   
    72. D(C   4,C   2,C   1,H  11)     57.83 -0.000016    0.01     57.84   
    73. D(H  12,C   2,C   1,H  11)    177.99 -0.000014    0.02    178.01   
    74. D(H  12,C   2,C   1,H  10)     62.12  0.000011    0.01     62.12   
    75. D(H  12,C   2,C   1,C   0)    -58.84 -0.000014    0.02    -58.82   
    76. D(H  13,O   3,C   2,H  12)     61.80  0.000004    0.17     61.97   
    77. D(H  13,O   3,C   2,C   4)    176.81 -0.000190    0.24    177.05   
    78. D(H  13,O   3,C   2,C   1)    -57.78  0.000010    0.17    -57.61   
    79. D(H  15,C   4,C   2,H  12)    -69.65  0.000009   -0.21    -69.87   
    80. D(H  15,C   4,C   2,O   3)    174.91  0.000141   -0.28    174.63   
    81. D(H  15,C   4,C   2,C   1)     51.16  0.000044   -0.22     50.94   
    82. D(H  14,C   4,C   2,H  12)     45.92 -0.000044   -0.18     45.74   
    83. D(H  14,C   4,C   2,O   3)    -69.52  0.000088   -0.24    -69.76   
    84. D(H  14,C   4,C   2,C   1)    166.73 -0.000009   -0.19    166.55   
    85. D(C   5,C   4,C   2,H  12)    169.36  0.000000   -0.20    169.16   
    86. D(C   5,C   4,C   2,O   3)     53.92  0.000132   -0.26     53.66   
    87. D(C   5,C   4,C   2,C   1)    -69.83  0.000035   -0.21    -70.03   
    88. D(N   6,C   5,C   4,C   2)    -66.45  0.000015   -0.06    -66.51   
    89. D(H  17,C   5,C   4,H  14)    175.11  0.000087   -0.12    174.99   
    90. D(H  17,C   5,C   4,C   2)     51.63  0.000077   -0.11     51.52   
    91. D(H  16,C   5,C   4,H  15)     52.23 -0.000052   -0.05     52.18   
    92. D(H  16,C   5,C   4,H  14)    -62.77  0.000031   -0.09    -62.87   
    93. D(H  16,C   5,C   4,C   2)    173.74  0.000021   -0.08    173.66   
    94. D(N   6,C   5,C   4,H  15)    172.04 -0.000057   -0.03    172.01   
    95. D(H  17,C   5,C   4,H  15)    -69.88  0.000005   -0.08    -69.96   
    96. D(N   6,C   5,C   4,H  14)     57.03  0.000025   -0.08     56.96   
    97. D(H  20,N   6,C   5,H  17)    -76.52 -0.000024   -0.04    -76.55   
    98. D(H  20,N   6,C   5,C   4)     45.06  0.000077   -0.09     44.97   
    99. D(H  19,N   6,C   5,H  17)     45.09 -0.000046   -0.03     45.06   
   100. D(H  19,N   6,C   5,H  16)    -71.09  0.000020   -0.06    -71.15   
   101. D(H  19,N   6,C   5,C   4)    166.67  0.000055   -0.08    166.59   
   102. D(H  18,N   6,C   5,H  17)    166.81 -0.000060   -0.02    166.79   
   103. D(H  20,N   6,C   5,H  16)    167.30  0.000042   -0.07    167.23   
   104. D(H  18,N   6,C   5,H  16)     50.62  0.000006   -0.05     50.57   
   105. D(H  18,N   6,C   5,C   4)    -71.61  0.000041   -0.08    -71.69   
    ----------------------------------------------------------------------------

         *************************************************************
         *                GEOMETRY OPTIMIZATION CYCLE   2            *
         *************************************************************
---------------------------------
CARTESIAN COORDINATES (ANGSTROEM)
---------------------------------
  C     -2.523268   -1.234314    0.293891
  C     -1.445871   -0.601615   -0.572569
  C     -0.672729    0.493187    0.140616
  O      0.002388   -0.004545    1.310814
  C      0.400442    1.165265   -0.710429
  C      1.600735    0.293154   -1.024517
  N      2.357691    0.003066    0.241257
  H     -3.107779   -1.952246   -0.282149
  H     -3.216608   -0.483104    0.681185
  H     -2.105640   -1.787108    1.140632
  H     -1.907369   -0.154977   -1.458996
  H     -0.760322   -1.376986   -0.932364
  H     -1.377537    1.270731    0.457734
  H     -0.632837   -0.402337    1.913978
  H      0.737230    2.082767   -0.215868
  H     -0.044984    1.476717   -1.657757
  H      2.284568    0.775437   -1.722471
  H      1.310473   -0.672215   -1.439223
  H      2.849173    0.831078    0.577760
  H      3.038134   -0.746770    0.127084
  H      1.629500   -0.247809    0.951755

----------------------------
CARTESIAN COORDINATES (A.U.)
----------------------------
  NO LB      ZA    FRAG    MASS        X           Y           Z
   0 C     6.0000    0    12.011         -4.768284550360876         -2.332515333239488          0.555373385543826
   1 C     6.0000    0    12.011         -2.732300726031061         -1.136887245357820         -1.081998795772329
   2 C     6.0000    0    12.011         -1.271273443393602          0.931989223970171          0.265726503248151
   3 O     8.0000    0    15.999          0.004512177887575         -0.008588534385935          2.477078701123273
   4 C     6.0000    0    12.011          0.756726349939790          2.202032588827726         -1.342517120390411
   5 C     6.0000    0    12.011          3.024949990661467          0.553981680088018         -1.936055680076820
   6 N     7.0000    0    14.007          4.455390018210647          0.005793476240123          0.455908973531223
   7 H     1.0000    0     1.008         -5.872852050359159         -3.689211137330959         -0.533184661573919
   8 H     1.0000    0     1.008         -6.078509124121612         -0.912934356458065          1.287252203918173
   9 H     1.0000    0     1.008         -3.979082194956232         -3.377145229205557          2.155481961503075
  10 H     1.0000    0     1.008         -3.604404499255724         -0.292863717794304         -2.757103134741368
  11 H     1.0000    0     1.008         -1.436799601701331         -2.602126861880848         -1.761911897571147
  12 H     1.0000    0     1.008         -2.603168111249395          2.401334472558616          0.864991003136036
  13 H     1.0000    0     1.008         -1.195888833401253         -0.760306591935971          3.616894336575513
  14 H     1.0000    0     1.008          1.393161947127025          3.935859660466967         -0.407931313374791
  15 H     1.0000    0     1.008         -0.085007662979384          2.790589772408018         -3.132707283829715
  16 H     1.0000    0     1.008          4.317208404024337          1.465363124253360         -3.254997669661389
  17 H     1.0000    0     1.008          2.476435325008404         -1.270301441370948         -2.719736508915351
  18 H     1.0000    0     1.008          5.384156723821739          1.570510706488140          1.091808929245648
  19 H     1.0000    0     1.008          5.741242158677976         -1.411191507700445          0.240153585682273
  20 H     1.0000    0     1.008          3.079309310152285         -0.468291794982390          1.798556854290688

--------------------------------
INTERNAL COORDINATES (ANGSTROEM)
--------------------------------
 C      0   0   0   0.000000     0.000     0.000
 C      1   0   0   1.520475     0.000     0.000
 C      2   1   0   1.518214   113.155     0.000
 O      3   2   1   1.439750   111.796    60.471
 C      3   2   1   1.525669   114.446   181.009
 C      5   3   2   1.516552   114.767   289.968
 N      6   5   3   1.503102   109.582   293.485
 H      1   2   3   1.090369   110.658   175.144
 H      1   2   3   1.093176   111.430    55.673
 H      1   2   3   1.094059   112.384   293.819
 H      2   1   3   1.094632   109.422   240.148
 H      2   1   3   1.095733   109.633   123.505
 H      3   2   1   1.096309   108.659   301.185
 H      4   3   2   0.962058   110.054   302.389
 H      5   3   2   1.095366   109.475   166.547
 H      5   3   2   1.092171   108.819    50.938
 H      6   5   3   1.089663   112.014   173.663
 H      6   5   3   1.090032   112.169    51.515
 H      7   6   5   1.019997   111.334   288.311
 H      7   6   5   1.018967   112.579   166.587
 H      7   6   5   1.047859   105.500    44.969

---------------------------
INTERNAL COORDINATES (A.U.)
---------------------------
 C      0   0   0   0.000000     0.000     0.000
 C      1   0   0   2.873281     0.000     0.000
 C      2   1   0   2.869009   113.155     0.000
 O      3   2   1   2.720734   111.796    60.471
 C      3   2   1   2.883096   114.446   181.009
 C      5   3   2   2.865868   114.767   289.968
 N      6   5   3   2.840451   109.582   293.485
 H      1   2   3   2.060498   110.658   175.144
 H      1   2   3   2.065804   111.430    55.673
 H      1   2   3   2.067472   112.384   293.819
 H      2   1   3   2.068554   109.422   240.148
 H      2   1   3   2.070636   109.633   123.505
 H      3   2   1   2.071723   108.659   301.185
 H      4   3   2   1.818027   110.054   302.389
 H      5   3   2   2.069941   109.475   166.547
 H      5   3   2   2.063903   108.819    50.938
 H      6   5   3   2.059164   112.014   173.663
 H      6   5   3   2.059862   112.169    51.515
 H      7   6   5   1.927516   111.334   288.311
 H      7   6   5   1.925568   112.579   166.587
 H      7   6   5   1.980166   105.500    44.969



           ************************************************************
           *        Program running with 8 parallel MPI-processes     *
           *              working on a common directory               *
           ************************************************************
           ************************************************************
           *              Shut down parallel processing               *
           ************************************************************


           ************************************************************
           *        Program running with 8 parallel MPI-processes     *
           *              working on a common directory               *
           ************************************************************

Diagonalization of the overlap matrix:
Smallest eigenvalue                        ... 1.403e-04
Time for diagonalization                   ...    0.465 sec
Threshold for overlap eigenvalues          ... 1.000e-08
Number of eigenvalues below threshold      ... 0
Time for construction of square roots      ...    0.060 sec
Total time needed                          ...    0.525 sec

-------------------
DFT GRID GENERATION
-------------------

General Integration Accuracy     IntAcc      ...  4.340
Radial Grid Type                 RadialGrid  ... Gauss-Chebyshev
Angular Grid (max. acc.)         AngularGrid ... Lebedev-194
Angular grid pruning method      GridPruning ... 3 (G Style)
Weight generation scheme         WeightScheme... Becke
Basis function cutoff            BFCut       ...    1.0000e-11
Integration weight cutoff        WCut        ...    1.0000e-14
Grids for H and He will be reduced by one unit

# of grid points (after initial pruning)     ...  44482 (   0.0 sec)
# of grid points (after weights+screening)   ...  40261 (   0.3 sec)
nearest neighbour list constructed           ...    0.0 sec
Grid point re-assignment to atoms done       ...    0.0 sec
Grid point division into batches done        ...    0.1 sec
Reduced shell lists constructed in    0.3 sec

Total number of grid points                  ...    40261
Total number of batches                      ...      638
Average number of points per batch           ...       63
Average number of grid points per atom       ...     1917
Average number of shells per batch           ...   103.52 (77.83%)
Average number of basis functions per batch  ...   240.06 (79.75%)
Average number of large shells per batch     ...    83.88 (81.03%)
Average number of large basis fcns per batch ...   193.65 (80.67%)
Maximum spatial batch extension              ...   2.06,  2.44,  2.27 au
Average spatial batch extension              ...   0.15,  0.15,  0.15 au

Time for grid setup =    1.198 sec

--------------
SCF ITERATIONS
--------------
ITER       Energy         Delta-E        Max-DP      RMS-DP      [F,P]     Damp
               ***  Starting incremental Fock matrix formation  ***
                      *** Initiating the SOSCF procedure ***
                      *** Re-Reading the Fockian *** 
                      *** Removing any level shift *** 
ITER      Energy       Delta-E        Grad      Rot      Max-DP    RMS-DP
  0   -328.45287659 -328.4528765865  0.000236  0.000236  0.000890  0.000020
               *** Restarting incremental Fock matrix formation ***
  1   -328.45289341  -0.0000168246  0.000087  0.000139  0.000368  0.000010
  2   -328.45289490  -0.0000014894  0.000073  0.000092  0.000247  0.000005
  3   -328.45289493  -0.0000000295  0.000063  0.000047  0.000114  0.000003
  4   -328.45289517  -0.0000002420  0.000003  0.000003  0.000008  0.000000
  5   -328.45289517  -0.0000000004  0.000003  0.000002  0.000005  0.000000
                 **** Energy Check signals convergence ****
              ***Rediagonalizing the Fockian in SOSCF/NRSCF***

               *****************************************************
               *                     SUCCESS                       *
               *           SCF CONVERGED AFTER   6 CYCLES          *
               *****************************************************

Setting up the final grid:

General Integration Accuracy     IntAcc      ...  5.010
Radial Grid Type                 RadialGrid  ... Gauss-Chebyshev
Angular Grid (max. acc.)         AngularGrid ... Lebedev-434
Angular grid pruning method      GridPruning ... 3 (G Style)
Weight generation scheme         WeightScheme... Becke
Basis function cutoff            BFCut       ...    1.0000e-11
Integration weight cutoff        WCut        ...    1.0000e-14
Grids for H and He will be reduced by one unit

# of grid points (after initial pruning)     ... 168610 (   0.0 sec)
# of grid points (after weights+screening)   ... 150655 (   4.3 sec)
nearest neighbour list constructed           ...    0.0 sec
Grid point re-assignment to atoms done       ...    0.1 sec
Grid point division into batches done        ...    1.6 sec
Reduced shell lists constructed in    2.2 sec

Total number of grid points                  ...   150655
Total number of batches                      ...     2365
Average number of points per batch           ...       63
Average number of grid points per atom       ...     7174
Average number of shells per batch           ...   101.87 (76.59%)
Average number of basis functions per batch  ...   236.64 (78.62%)
Average number of large shells per batch     ...    81.45 (79.96%)
Average number of large basis fcns per batch ...   188.23 (79.54%)
Maximum spatial batch extension              ...   3.66,  6.56,  6.64 au
Average spatial batch extension              ...   0.10,  0.11,  0.11 au

Final grid set up in    7.8 sec
Final integration                            ... done (   1.7 sec)
Change in XC energy                          ...     0.000286075
Integrated number of electrons               ...    57.999946329
Previous integrated no of electrons          ...    57.999079473
Total Energy       :         -328.45260910 Eh           -8937.64987 eV
  Last Energy change         ...   -2.3512e-09  Tolerance :   1.0000e-08
  Last MAX-Density change    ...    2.6139e-06  Tolerance :   1.0000e-07
             **** THE GBW FILE WAS UPDATED (5238_+.gbw) ****
             **** DENSITY FILE WAS UPDATED (5238_+.scfp.tmp) ****
             **** ENERGY FILE WAS UPDATED (5238_+.en.tmp) ****
Total SCF time: 0 days 0 hours 1 min 23 sec 
           ************************************************************
           *              Shut down parallel processing               *
           ************************************************************

-------------------------   --------------------
FINAL SINGLE POINT ENERGY      -328.452609099714
-------------------------   --------------------



           ************************************************************
           *        Program running with 8 parallel MPI-processes     *
           *              working on a common directory               *
           ************************************************************
------------------------------------------------------------------------------
                         ORCA SCF GRADIENT CALCULATION
------------------------------------------------------------------------------

Gradient of the Kohn-Sham DFT energy:
Kohn-Sham wavefunction type      ... RKS
Hartree-Fock exchange scaling    ...    0.250
Number of operators              ...    1
Number of atoms                  ...   21
Basis set dimensions             ...  301
Integral neglect threshold       ... 2.5e-11
Integral primitive cutoff        ... 2.5e-12

Nuclear repulsion gradient       ... done
One Electron Gradient            ... done
Pre-screening matrix             ... done
Starting the two electron gradient:
Two electron gradient done
Exchange-correlation gradient    ... done

------------------
CARTESIAN GRADIENT
------------------

   1   C   :    0.000094930    0.000042171   -0.000045444
   2   C   :   -0.000045833    0.000042021    0.000128206
   3   C   :    0.000017029   -0.000102880   -0.000054376
   4   O   :    0.000201471   -0.000034364   -0.000156471
   5   C   :   -0.000011698   -0.000076119    0.000096643
   6   C   :   -0.000156238    0.000015136   -0.000041781
   7   N   :   -0.000313691   -0.000134327    0.000078542
   8   H   :    0.000006518   -0.000004185   -0.000012057
   9   H   :   -0.000006802   -0.000013702    0.000019347
  10   H   :   -0.000037786   -0.000007066   -0.000001672
  11   H   :    0.000004435   -0.000009810   -0.000023298
  12   H   :    0.000007697   -0.000009735   -0.000008285
  13   H   :   -0.000013450    0.000039465   -0.000055976
  14   H   :    0.000012759    0.000067334    0.000035798
  15   H   :   -0.000000962   -0.000022925    0.000026095
  16   H   :    0.000043298    0.000047382   -0.000023363
  17   H   :    0.000027396    0.000038026    0.000024739
  18   H   :    0.000046692    0.000000865   -0.000031726
  19   H   :   -0.000053223    0.000010804    0.000077336
  20   H   :   -0.000014228   -0.000028852   -0.000028949
  21   H   :    0.000191687    0.000140760   -0.000003309

Norm of the cartesian gradient     ...    0.000608918
RMS gradient                       ...    0.000076716
MAX gradient                       ...    0.000313691

-------
TIMINGS
-------

Total SCF gradient time            ...       51.983 sec

One electron gradient       ....       0.260 sec  (  0.5%)
Prescreening matrices       ....       0.903 sec  (  1.7%)
Two electron gradient       ....      29.108 sec  ( 56.0%)
XC gradient                 ....       4.380 sec  (  8.4%)
           ************************************************************
           *              Shut down parallel processing               *
           ************************************************************
------------------------------------------------------------------------------
                         ORCA GEOMETRY RELAXATION STEP
------------------------------------------------------------------------------

Reading the OPT-File                    .... done
Getting information on internals        .... done
Copying old internal coords+grads       .... done
Making the new internal coordinates     .... (new redundants).... done
Validating the new internal coordinates .... (new redundants).... done
Calculating the B-matrix                .... done
Calculating the G,G- and P matrices     .... done
Transforming gradient to internals      .... done
Projecting the internal gradient        .... done
Number of atoms                         ....  21
Number of internal coordinates          .... 105
Current Energy                          ....  -328.452609100 Eh
Current gradient norm                   ....     0.000608918 Eh/bohr
Maximum allowed component of the step   ....  0.300
Current trust radius                    ....  0.300
Updating the Hessian (BFGS)             .... done
Forming the augmented Hessian           .... done
Diagonalizing the augmented Hessian     .... done
Last element of RFO vector              ....  0.999717859
Lowest eigenvalues of augmented Hessian:
 -0.000006060  0.006518061  0.011924596  0.012106064  0.012316389
Length of the computed step             ....  0.023759660
The final length of the internal step   ....  0.023759660
Converting the step to cartesian space:
 Initial RMS(Int)=    0.0023187054
Transforming coordinates:
 Iter   0:  RMS(Cart)=    0.0075678528 RMS(Int)=    0.0023192689
 Iter   1:  RMS(Cart)=    0.0000209593 RMS(Int)=    0.0000119366
 Iter   2:  RMS(Cart)=    0.0000001425 RMS(Int)=    0.0000000589
 Iter   3:  RMS(Cart)=    0.0000000009 RMS(Int)=    0.0000000005
done
Storing new coordinates                 .... done

                                .--------------------.
          ----------------------|Geometry convergence|---------------------
          Item                value                 Tolerance   Converged
          -----------------------------------------------------------------
          Energy change      -0.00000316            0.00000100      NO
          RMS gradient        0.00009185            0.00003000      NO
          MAX gradient        0.00039735            0.00010000      NO
          RMS step            0.00231871            0.00060000      NO
          MAX step            0.00751177            0.00100000      NO
          ....................................................
          Max(Bonds)      0.0006      Max(Angles)    0.12
          Max(Dihed)        0.43      Max(Improp)    0.00
          -----------------------------------------------------------------

The optimization has not yet converged - more geometry cycles are needed


    ---------------------------------------------------------------------------
                         Redundant Internal Coordinates
                            (Angstroem and degrees)

        Definition                    Value    dE/dq     Step     New-Value
    ----------------------------------------------------------------------------
     1. B(C   1,C   0)                1.5205 -0.000067  0.0003    1.5208   
     2. B(C   2,C   1)                1.5182 -0.000069  0.0003    1.5185   
     3. B(O   3,C   2)                1.4398 -0.000010  0.0002    1.4399   
     4. B(C   4,C   2)                1.5257 -0.000267  0.0006    1.5262   
     5. B(C   5,C   4)                1.5166 -0.000257  0.0004    1.5169   
     6. B(N   6,C   5)                1.5031  0.000009 -0.0001    1.5030   
     7. B(H   7,C   0)                1.0904  0.000005  0.0002    1.0905   
     8. B(H   8,C   0)                1.0932  0.000002  0.0001    1.0933   
     9. B(H   9,C   0)                1.0941 -0.000010  0.0001    1.0941   
    10. B(H  10,C   1)                1.0946  0.000012 -0.0000    1.0946   
    11. B(H  11,C   1)                1.0957  0.000015  0.0001    1.0958   
    12. B(H  12,C   2)                1.0963  0.000020  0.0001    1.0964   
    13. B(H  13,O   3)                0.9621 -0.000015 -0.0001    0.9620   
    14. B(H  14,C   4)                1.0954 -0.000009  0.0003    1.0956   
    15. B(H  15,C   4)                1.0922  0.000018  0.0001    1.0923   
    16. B(H  16,C   5)                1.0897  0.000018 -0.0002    1.0895   
    17. B(H  17,C   5)                1.0900 -0.000000  0.0002    1.0902   
    18. B(H  18,N   6)                1.0200  0.000010  0.0002    1.0202   
    19. B(H  19,N   6)                1.0190  0.000014 -0.0000    1.0190   
    20. B(H  20,N   6)                1.0479 -0.000170  0.0002    1.0480   
    21. A(H   8,C   0,H   9)          108.37 -0.000035    0.01    108.38   
    22. A(C   1,C   0,H   8)          111.43  0.000028   -0.02    111.41   
    23. A(H   7,C   0,H   8)          107.44 -0.000000   -0.00    107.43   
    24. A(C   1,C   0,H   7)          110.66 -0.000029    0.02    110.68   
    25. A(C   1,C   0,H   9)          112.38  0.000047   -0.03    112.35   
    26. A(H   7,C   0,H   9)          106.31 -0.000015    0.02    106.33   
    27. A(C   2,C   1,H  10)          107.51 -0.000006   -0.00    107.51   
    28. A(C   0,C   1,H  10)          109.42 -0.000009   -0.00    109.42   
    29. A(C   0,C   1,C   2)          113.16  0.000044   -0.04    113.12   
    30. A(C   2,C   1,H  11)          110.24 -0.000014    0.02    110.25   
    31. A(H  10,C   1,H  11)          106.65 -0.000000    0.01    106.67   
    32. A(C   0,C   1,H  11)          109.63 -0.000017    0.02    109.65   
    33. A(C   1,C   2,C   4)          114.45  0.000206   -0.09    114.35   
    34. A(C   4,C   2,H  12)          107.53 -0.000023    0.04    107.57   
    35. A(C   1,C   2,H  12)          108.66 -0.000065   -0.02    108.64   
    36. A(C   1,C   2,O   3)          111.80  0.000085   -0.04    111.75   
    37. A(O   3,C   2,C   4)          106.01 -0.000307    0.12    106.13   
    38. A(O   3,C   2,H  12)          108.15  0.000098   -0.00    108.15   
    39. A(C   2,O   3,H  13)          110.05  0.000032   -0.02    110.03   
    40. A(H  14,C   4,H  15)          106.15 -0.000064    0.01    106.16   
    41. A(C   5,C   4,H  15)          107.89  0.000096   -0.01    107.88   
    42. A(C   2,C   4,H  15)          108.82  0.000216   -0.08    108.74   
    43. A(C   5,C   4,H  14)          109.38  0.000127    0.01    109.40   
    44. A(C   2,C   4,H  14)          109.48  0.000046    0.05    109.52   
    45. A(C   2,C   4,C   5)          114.77 -0.000397    0.01    114.78   
    46. A(N   6,C   5,H  17)          106.47  0.000046    0.01    106.48   
    47. A(C   4,C   5,H  17)          112.17  0.000097   -0.03    112.13   
    48. A(N   6,C   5,H  16)          107.99  0.000116    0.01    107.99   
    49. A(C   4,C   5,H  16)          112.01  0.000074    0.02    112.03   
    50. A(H  16,C   5,H  17)          108.39 -0.000047    0.01    108.39   
    51. A(C   4,C   5,N   6)          109.58 -0.000284   -0.01    109.57   
    52. A(H  19,N   6,H  20)          111.34 -0.000019    0.01    111.35   
    53. A(H  18,N   6,H  20)          107.79 -0.000131    0.05    107.83   
    54. A(C   5,N   6,H  20)          105.50  0.000156   -0.07    105.43   
    55. A(H  18,N   6,H  19)          108.21  0.000026   -0.01    108.21   
    56. A(C   5,N   6,H  19)          112.58 -0.000059    0.03    112.60   
    57. A(C   5,N   6,H  18)          111.33  0.000023   -0.01    111.32   
    58. D(H  10,C   1,C   0,H   7)     55.29 -0.000010    0.04     55.33   
    59. D(H  10,C   1,C   0,H   8)    -64.18 -0.000008    0.03    -64.14   
    60. D(C   2,C   1,C   0,H   7)    175.14  0.000006    0.01    175.15   
    61. D(C   2,C   1,C   0,H   9)    -66.18 -0.000002    0.03    -66.16   
    62. D(H  11,C   1,C   0,H   8)    179.18  0.000007    0.01    179.19   
    63. D(H  10,C   1,C   0,H   9)    173.97 -0.000017    0.05    174.02   
    64. D(C   2,C   1,C   0,H   8)     55.67  0.000007    0.01     55.68   
    65. D(H  11,C   1,C   0,H   9)     57.32 -0.000002    0.03     57.35   
    66. D(H  11,C   1,C   0,H   7)    -61.35  0.000005    0.01    -61.34   
    67. D(C   4,C   2,C   1,C   0)   -178.99 -0.000088    0.06   -178.93   
    68. D(C   4,C   2,C   1,H  10)    -58.05 -0.000075    0.03    -58.02   
    69. D(O   3,C   2,C   1,H  11)    -62.70  0.000104   -0.01    -62.71   
    70. D(O   3,C   2,C   1,H  10)   -178.59  0.000115   -0.03   -178.62   
    71. D(O   3,C   2,C   1,C   0)     60.47  0.000102   -0.00     60.47   
    72. D(C   4,C   2,C   1,H  11)     57.84 -0.000086    0.05     57.89   
    73. D(H  12,C   2,C   1,H  11)    178.01 -0.000027    0.03    178.05   
    74. D(H  12,C   2,C   1,H  10)     62.12 -0.000016    0.01     62.13   
    75. D(H  12,C   2,C   1,C   0)    -58.82 -0.000029    0.04    -58.78   
    76. D(H  13,O   3,C   2,H  12)     61.97  0.000012    0.32     62.30   
    77. D(H  13,O   3,C   2,C   4)    177.05 -0.000120    0.43    177.48   
    78. D(H  13,O   3,C   2,C   1)    -57.61 -0.000022    0.37    -57.24   
    79. D(H  15,C   4,C   2,H  12)    -69.87 -0.000043   -0.23    -70.09   
    80. D(H  15,C   4,C   2,O   3)    174.63  0.000005   -0.30    174.33   
    81. D(H  15,C   4,C   2,C   1)     50.94 -0.000010   -0.28     50.66   
    82. D(H  14,C   4,C   2,H  12)     45.74  0.000026   -0.23     45.51   
    83. D(H  14,C   4,C   2,O   3)    -69.76  0.000074   -0.31    -70.06   
    84. D(H  14,C   4,C   2,C   1)    166.55  0.000059   -0.28    166.27   
    85. D(C   5,C   4,C   2,H  12)    169.16 -0.000060   -0.16    169.00   
    86. D(C   5,C   4,C   2,O   3)     53.66 -0.000012   -0.24     53.42   
    87. D(C   5,C   4,C   2,C   1)    -70.03 -0.000027   -0.22    -70.25   
    88. D(N   6,C   5,C   4,C   2)    -66.51  0.000134   -0.34    -66.85   
    89. D(H  17,C   5,C   4,H  14)    174.99 -0.000062   -0.27    174.71   
    90. D(H  17,C   5,C   4,C   2)     51.52  0.000067   -0.35     51.16   
    91. D(H  16,C   5,C   4,H  15)     52.18  0.000045   -0.26     51.93   
    92. D(H  16,C   5,C   4,H  14)    -62.87  0.000003   -0.27    -63.14   
    93. D(H  16,C   5,C   4,C   2)    173.66  0.000132   -0.35    173.31   
    94. D(N   6,C   5,C   4,H  15)    172.01  0.000048   -0.24    171.77   
    95. D(H  17,C   5,C   4,H  15)    -69.96 -0.000019   -0.25    -70.22   
    96. D(N   6,C   5,C   4,H  14)     56.96  0.000005   -0.26     56.70   
    97. D(H  20,N   6,C   5,H  17)    -76.55 -0.000032    0.03    -76.52   
    98. D(H  20,N   6,C   5,C   4)     44.97 -0.000048   -0.01     44.96   
    99. D(H  19,N   6,C   5,H  17)     45.06  0.000013    0.02     45.08   
   100. D(H  19,N   6,C   5,H  16)    -71.15 -0.000012   -0.00    -71.16   
   101. D(H  19,N   6,C   5,C   4)    166.59 -0.000002   -0.02    166.56   
   102. D(H  18,N   6,C   5,H  17)    166.79  0.000022    0.02    166.81   
   103. D(H  20,N   6,C   5,H  16)    167.23 -0.000058    0.01    167.24   
   104. D(H  18,N   6,C   5,H  16)     50.57 -0.000003   -0.00     50.57   
   105. D(H  18,N   6,C   5,C   4)    -71.69  0.000006   -0.02    -71.71   
    ----------------------------------------------------------------------------

         *************************************************************
         *                GEOMETRY OPTIMIZATION CYCLE   3            *
         *************************************************************
---------------------------------
CARTESIAN COORDINATES (ANGSTROEM)
---------------------------------
  C     -2.526656   -1.232697    0.292488
  C     -1.447977   -0.600577   -0.573389
  C     -0.672621    0.491325    0.142492
  O      0.001090   -0.011413    1.311581
  C      0.400803    1.163025   -0.709560
  C      1.601651    0.290839   -1.023167
  N      2.363239    0.009074    0.241550
  H     -3.113114   -1.948579   -0.284424
  H     -3.218249   -0.480422    0.681248
  H     -2.109303   -1.787450    1.138167
  H     -1.908914   -0.150889   -1.458540
  H     -0.764050   -1.376627   -0.935108
  H     -1.376367    1.269080    0.461796
  H     -0.634692   -0.414496    1.910493
  H      0.737291    2.081997   -0.216961
  H     -0.045803    1.472033   -1.657289
  H      2.282249    0.769826   -1.726232
  H      1.310758   -0.677354   -1.431324
  H      2.854876    0.839861    0.571470
  H      3.044329   -0.740539    0.129839
  H      1.636850   -0.238642    0.955235

----------------------------
CARTESIAN COORDINATES (A.U.)
----------------------------
  NO LB      ZA    FRAG    MASS        X           Y           Z
   0 C     6.0000    0    12.011         -4.774688003721243         -2.329459653423011          0.552721832121680
   1 C     6.0000    0    12.011         -2.736279521036379         -1.134926604012588         -1.083548798752950
   2 C     6.0000    0    12.011         -1.271069043048088          0.928470305740323          0.269270807251794
   3 O     8.0000    0    15.999          0.002059072880321         -0.021568246953087          2.478528855353082
   4 C     6.0000    0    12.011          0.757408812043777          2.197798986643134         -1.340874192165866
   5 C     6.0000    0    12.011          3.026681761290673          0.549605878492105         -1.933506257146497
   6 N     7.0000    0    14.007          4.465874803187136          0.017146648931812          0.456462790902587
   7 H     1.0000    0     1.008         -5.882931973027682         -3.682279778362713         -0.537484251350543
   8 H     1.0000    0     1.008         -6.081609995388111         -0.907865075506460          1.287371582158521
   9 H     1.0000    0     1.008         -3.986004740912038         -3.377790752460720          2.150823672469230
  10 H     1.0000    0     1.008         -3.607324388407400         -0.285138852404280         -2.756240831098259
  11 H     1.0000    0     1.008         -1.443844697804935         -2.601447186482265         -1.767098942075213
  12 H     1.0000    0     1.008         -2.600957040778063          2.398214221028426          0.872668030134662
  13 H     1.0000    0     1.008         -1.199393279406743         -0.783284205842515          3.610308923476983
  14 H     1.0000    0     1.008          1.393277134615679          3.934403386627242         -0.409997718586507
  15 H     1.0000    0     1.008         -0.086555260406423          2.781739271782833         -3.131822025899915
  16 H     1.0000    0     1.008          4.312824850373272          1.454761058650765         -3.262105010597095
  17 H     1.0000    0     1.008          2.476974073560096         -1.280014067006072         -2.704810880984035
  18 H     1.0000    0     1.008          5.394933099556654          1.587107803181782          1.079921862678974
  19 H     1.0000    0     1.008          5.752947919300640         -1.399414964997816          0.245359552997127
  20 H     1.0000    0     1.008          3.093198024830471         -0.450967219968485          1.805133371002882

--------------------------------
INTERNAL COORDINATES (ANGSTROEM)
--------------------------------
 C      0   0   0   0.000000     0.000     0.000
 C      1   0   0   1.520811     0.000     0.000
 C      2   1   0   1.518524   113.118     0.000
 O      3   2   1   1.439931   111.753    60.469
 C      3   2   1   1.526241   114.355   181.067
 C      5   3   2   1.516935   114.780   289.752
 N      6   5   3   1.502970   109.570   293.147
 H      1   2   3   1.090526   110.676   175.151
 H      1   2   3   1.093322   111.415    55.679
 H      1   2   3   1.094124   112.350   293.844
 H      2   1   3   1.094611   109.420   240.177
 H      2   1   3   1.095833   109.649   123.510
 H      3   2   1   1.096411   108.641   301.222
 H      4   3   2   0.961972   110.032   302.762
 H      5   3   2   1.095621   109.520   166.267
 H      5   3   2   1.092306   108.743    50.660
 H      6   5   3   1.089468   112.034   173.309
 H      6   5   3   1.090233   112.135    51.162
 H      7   6   5   1.020177   111.325   288.286
 H      7   6   5   1.018961   112.604   166.562
 H      7   6   5   1.048023   105.434    44.957

---------------------------
INTERNAL COORDINATES (A.U.)
---------------------------
 C      0   0   0   0.000000     0.000     0.000
 C      1   0   0   2.873917     0.000     0.000
 C      2   1   0   2.869594   113.118     0.000
 O      3   2   1   2.721075   111.753    60.469
 C      3   2   1   2.884178   114.355   181.067
 C      5   3   2   2.866593   114.780   289.752
 N      6   5   3   2.840201   109.570   293.147
 H      1   2   3   2.060795   110.676   175.151
 H      1   2   3   2.066080   111.415    55.679
 H      1   2   3   2.067595   112.350   293.844
 H      2   1   3   2.068516   109.420   240.177
 H      2   1   3   2.070824   109.649   123.510
 H      3   2   1   2.071916   108.641   301.222
 H      4   3   2   1.817863   110.032   302.762
 H      5   3   2   2.070424   109.520   166.267
 H      5   3   2   2.064160   108.743    50.660
 H      6   5   3   2.058797   112.034   173.309
 H      6   5   3   2.060242   112.135    51.162
 H      7   6   5   1.927856   111.325   288.286
 H      7   6   5   1.925557   112.604   166.562
 H      7   6   5   1.980476   105.434    44.957



           ************************************************************
           *        Program running with 8 parallel MPI-processes     *
           *              working on a common directory               *
           ************************************************************
           ************************************************************
           *              Shut down parallel processing               *
           ************************************************************


           ************************************************************
           *        Program running with 8 parallel MPI-processes     *
           *              working on a common directory               *
           ************************************************************

Diagonalization of the overlap matrix:
Smallest eigenvalue                        ... 1.403e-04
Time for diagonalization                   ...    0.480 sec
Threshold for overlap eigenvalues          ... 1.000e-08
Number of eigenvalues below threshold      ... 0
Time for construction of square roots      ...    0.065 sec
Total time needed                          ...    0.545 sec

-------------------
DFT GRID GENERATION
-------------------

General Integration Accuracy     IntAcc      ...  4.340
Radial Grid Type                 RadialGrid  ... Gauss-Chebyshev
Angular Grid (max. acc.)         AngularGrid ... Lebedev-194
Angular grid pruning method      GridPruning ... 3 (G Style)
Weight generation scheme         WeightScheme... Becke
Basis function cutoff            BFCut       ...    1.0000e-11
Integration weight cutoff        WCut        ...    1.0000e-14
Grids for H and He will be reduced by one unit

# of grid points (after initial pruning)     ...  44482 (   0.0 sec)
# of grid points (after weights+screening)   ...  40260 (   0.5 sec)
nearest neighbour list constructed           ...    0.0 sec
Grid point re-assignment to atoms done       ...    0.0 sec
Grid point division into batches done        ...    0.1 sec
Reduced shell lists constructed in    0.1 sec

Total number of grid points                  ...    40260
Total number of batches                      ...      638
Average number of points per batch           ...       63
Average number of grid points per atom       ...     1917
Average number of shells per batch           ...   103.73 (77.99%)
Average number of basis functions per batch  ...   240.44 (79.88%)
Average number of large shells per batch     ...    83.99 (80.97%)
Average number of large basis fcns per batch ...   194.01 (80.69%)
Maximum spatial batch extension              ...   2.46,  2.51,  2.29 au
Average spatial batch extension              ...   0.15,  0.15,  0.15 au

Time for grid setup =    1.505 sec

--------------
SCF ITERATIONS
--------------
ITER       Energy         Delta-E        Max-DP      RMS-DP      [F,P]     Damp
               ***  Starting incremental Fock matrix formation  ***
                      *** Initiating the SOSCF procedure ***
                      *** Re-Reading the Fockian *** 
                      *** Removing any level shift *** 
ITER      Energy       Delta-E        Grad      Rot      Max-DP    RMS-DP
  0   -328.45285316 -328.4528531596  0.000385  0.000385  0.001608  0.000033
               *** Restarting incremental Fock matrix formation ***
  1   -328.45289282  -0.0000396602  0.000131  0.000210  0.000699  0.000015
  2   -328.45289659  -0.0000037715  0.000024  0.000067  0.000107  0.000003
  3   -328.45289662  -0.0000000335  0.000028  0.000018  0.000039  0.000001
  4   -328.45289668  -0.0000000596  0.000004  0.000006  0.000011  0.000000
                  ***Gradient check signals convergence***
              ***Rediagonalizing the Fockian in SOSCF/NRSCF***

               *****************************************************
               *                     SUCCESS                       *
               *           SCF CONVERGED AFTER   5 CYCLES          *
               *****************************************************

Setting up the final grid:

General Integration Accuracy     IntAcc      ...  5.010
Radial Grid Type                 RadialGrid  ... Gauss-Chebyshev
Angular Grid (max. acc.)         AngularGrid ... Lebedev-434
Angular grid pruning method      GridPruning ... 3 (G Style)
Weight generation scheme         WeightScheme... Becke
Basis function cutoff            BFCut       ...    1.0000e-11
Integration weight cutoff        WCut        ...    1.0000e-14
Grids for H and He will be reduced by one unit

# of grid points (after initial pruning)     ... 168610 (   0.0 sec)
# of grid points (after weights+screening)   ... 150658 (   4.6 sec)
nearest neighbour list constructed           ...    0.0 sec
Grid point re-assignment to atoms done       ...    0.0 sec
Grid point division into batches done        ...    1.3 sec
Reduced shell lists constructed in    1.7 sec

Total number of grid points                  ...   150658
Total number of batches                      ...     2364
Average number of points per batch           ...       63
Average number of grid points per atom       ...     7174
Average number of shells per batch           ...   101.81 (76.55%)
Average number of basis functions per batch  ...   236.47 (78.56%)
Average number of large shells per batch     ...    81.43 (79.98%)
Average number of large basis fcns per batch ...   188.19 (79.58%)
Maximum spatial batch extension              ...   3.66,  6.56,  6.64 au
[...]
     39      -0.027060  -0.018357  -0.002433  -0.000137  -0.002739  -0.000483
     40       0.004697   0.003025  -0.000284   0.001120   0.001420   0.000187
     41      -0.026843   0.000210   0.003449  -0.003974  -0.006047  -0.002470
     42       0.003569  -0.002705  -0.060598  -0.035554   0.079231  -0.260518
     43      -0.002263  -0.006340  -0.168338  -0.095966   0.217315  -0.711262
     44       0.017169  -0.003460  -0.095854  -0.053021   0.119599  -0.389329
     45       0.006999   0.006098   0.040675   0.021148  -0.036362   0.144472
     46      -0.022620  -0.001868  -0.020489  -0.010711   0.018936  -0.083488
     47      -0.009979   0.001054   0.077634   0.040395  -0.073048   0.303573
     48      -0.010848   0.059478   0.007210   0.005654  -0.002210   0.004053
     49       0.008179   0.035094   0.003396   0.004120  -0.004115   0.007221
     50      -0.019452  -0.041007  -0.004941  -0.004961   0.004117  -0.009383
     51      -0.008265  -0.009128   0.012076   0.001694  -0.000186   0.025952
     52      -0.001331  -0.034091   0.034629   0.004318  -0.002535   0.075943
     53      -0.019546  -0.007476   0.016052   0.002464  -0.001397   0.032611
     54      -0.420654   0.023419   0.003011   0.001382   0.001951  -0.006653
     55       0.065690   0.049716   0.008903   0.003896   0.001803  -0.004045
     56       0.405084   0.016018   0.002346   0.000974   0.001283  -0.002994
     57      -0.056524   0.034835   0.006722   0.002749   0.001910  -0.003714
     58      -0.043183  -0.062409  -0.011638  -0.004798  -0.002393   0.003179
     59      -0.343258   0.004166   0.000078  -0.000004   0.000460  -0.001141
     60       0.071394  -0.602148  -0.113627  -0.046593  -0.026556   0.030481
     61       0.654475  -0.284691  -0.051187  -0.020771  -0.012639   0.014823
     62       0.302955   0.701711   0.129600   0.052138   0.032472  -0.033371
                 54         55         56         57         58         59    
      0      -0.026997  -0.009007  -0.060297  -0.006632  -0.022667   0.000172
      1       0.021875   0.007635   0.048535   0.006622  -0.065918  -0.000915
      2      -0.009826  -0.003725  -0.029484  -0.003299  -0.058540  -0.000380
      3       0.050691   0.003544  -0.023724  -0.005296   0.002579   0.001755
      4      -0.052334  -0.003713   0.024986   0.005367  -0.003293  -0.001855
      5       0.036376   0.000830  -0.014087  -0.005131  -0.003851  -0.000201
      6       0.010973   0.000553  -0.003390  -0.001679   0.000828   0.000781
      7      -0.012322  -0.001019   0.004334   0.000553  -0.000094  -0.000536
      8      -0.004380   0.000638   0.000793  -0.000861  -0.000368  -0.000486
      9      -0.000447  -0.000069   0.000170   0.000050   0.000024   0.000018
     10       0.000195   0.000234  -0.000336  -0.000335   0.000019   0.000015
     11      -0.000185  -0.000392   0.000127   0.000590   0.000050   0.000096
     12      -0.003637   0.009564   0.004639  -0.038797  -0.000311  -0.002628
     13      -0.003941  -0.003062   0.001214  -0.002947   0.000030  -0.006298
     14      -0.006483   0.020727   0.008635  -0.076383  -0.000579  -0.004396
     15      -0.000520   0.018754  -0.003745   0.006906   0.000756  -0.053233
     16       0.004832  -0.026993   0.002144  -0.003936   0.000724  -0.077678
     17       0.005240  -0.056679   0.008546  -0.017140  -0.000558   0.017546
     18      -0.000128   0.002678  -0.001048   0.001210  -0.000315  -0.000386
     19      -0.000157   0.002679  -0.000600   0.000176  -0.000154   0.001285
     20       0.000064  -0.002828   0.001089  -0.000101   0.000385   0.002051
     21       0.040923   0.012478   0.099826   0.005593   0.483898   0.003960
     22       0.068288   0.020384   0.152768   0.010282   0.583631   0.004566
     23       0.046305   0.013442   0.106309   0.006061   0.478427   0.003764
     24       0.190280   0.061400   0.383320   0.044880  -0.266640  -0.005332
     25      -0.216221  -0.068778  -0.427207  -0.049895   0.278515   0.005422
     26      -0.113250  -0.036406  -0.228878  -0.026720   0.134969   0.002953
     27       0.093530   0.033828   0.235855   0.029785   0.047399  -0.000827
     28      -0.116114  -0.042965  -0.305941  -0.039271  -0.078736   0.000893
     29       0.184506   0.067551   0.475138   0.061050   0.087964  -0.001729
     30      -0.316877  -0.014755   0.129191   0.040457   0.009434  -0.003581
     31       0.298919   0.012795  -0.126133  -0.037946  -0.009101   0.003392
     32      -0.601242  -0.027753   0.251164   0.076423   0.018502  -0.006992
     33      -0.294011  -0.031000   0.154933   0.023267  -0.040813  -0.018871
     34       0.337198   0.033640  -0.171283  -0.025667   0.043478   0.020481
     35       0.164489   0.016604  -0.083416  -0.013267   0.021646   0.010117
     36      -0.118108  -0.007347   0.036271   0.006901  -0.004884  -0.003846
     37       0.133199   0.007867  -0.045425  -0.006254   0.008117   0.004430
     38       0.057690   0.002234  -0.018739  -0.002988   0.003460   0.002187
     39       0.000493  -0.001611  -0.000322   0.001089   0.000987   0.000486
     40      -0.000528   0.000080   0.002050   0.000758  -0.000949  -0.000197
     41       0.002227   0.000940   0.005046   0.000293   0.002138   0.000044
     42       0.021380  -0.012807  -0.014633   0.101394   0.000881   0.023694
     43       0.061080  -0.033862  -0.043568   0.296993   0.002408   0.075576
     44       0.030665  -0.013548  -0.022094   0.149530   0.001196   0.040767
     45       0.021688  -0.103994  -0.039576   0.363351   0.002639   0.006267
     46      -0.013932   0.071018   0.026842  -0.251878  -0.001986  -0.003599
     47       0.043115  -0.228210  -0.080502   0.766063   0.005701   0.012154
     48       0.029675  -0.404128   0.066835  -0.128417  -0.008187   0.448423
     49       0.022859  -0.298616   0.048371  -0.092518  -0.005514   0.313025
     50      -0.029065   0.410440  -0.068548   0.132084   0.008148  -0.461310
     51      -0.025609   0.194583  -0.022906   0.041876  -0.000977   0.179209
     52      -0.078024   0.614694  -0.073679   0.139243  -0.003250   0.608387
     53      -0.031241   0.248646  -0.029911   0.055590  -0.001495   0.255837
     54       0.001416  -0.003545  -0.000701   0.001515  -0.000180  -0.007864
     55       0.001370  -0.004901  -0.000820  -0.001059  -0.000417  -0.023138
     56       0.000339   0.000412  -0.000611   0.000772  -0.000189  -0.000850
     57      -0.000098   0.004224  -0.001319   0.000926  -0.000573  -0.000684
     58       0.000201  -0.007918   0.002304  -0.000880   0.000626   0.002168
     59       0.000612  -0.007208   0.000989  -0.000465   0.000040  -0.000940
     60       0.000617  -0.042351   0.016000  -0.008078   0.005204   0.017418
     61      -0.000049  -0.020867   0.007685  -0.006469   0.001843   0.010515
     62      -0.002464   0.053650  -0.018082   0.012723  -0.005290  -0.030004
                  60         61         62    
      0      -0.000029   0.000001  -0.000054
      1       0.000011  -0.000003  -0.000487
      2      -0.000020   0.000003   0.000399
      3      -0.000004  -0.000003   0.000037
      4       0.000001  -0.000000  -0.000168
      5       0.000022   0.000000   0.000231
      6      -0.000142  -0.000037   0.000945
      7       0.000104   0.000040   0.000556
      8      -0.000279  -0.000009  -0.000571
      9       0.000278   0.000093   0.040239
     10      -0.000163   0.000001   0.026423
     11       0.000164   0.000017  -0.039781
     12       0.000240   0.000238  -0.000315
     13       0.000216  -0.000278  -0.000066
     14       0.000229  -0.000164   0.000128
     15      -0.001075   0.000459   0.000027
     16      -0.001271   0.001285  -0.000001
     17      -0.000241   0.000569  -0.000004
     18      -0.058076  -0.016084  -0.000823
     19      -0.012960   0.076607  -0.000245
     20      -0.008322   0.021319   0.000534
     21       0.000288   0.000074  -0.000011
     22       0.000237   0.000042   0.001076
     23       0.000259   0.000036  -0.001373
     24       0.000008  -0.000039   0.001188
     25      -0.000054   0.000036  -0.000950
     26      -0.000089  -0.000003   0.000058
     27       0.000050  -0.000021  -0.000986
     28      -0.000365  -0.000041   0.005260
     29       0.000278  -0.000024  -0.002822
     30       0.000249   0.000060   0.001447
     31       0.000092   0.000019   0.001105
     32       0.000315   0.000034   0.000369
     33       0.000055   0.000047   0.000179
     34      -0.000293  -0.000077   0.000071
     35      -0.000189  -0.000057  -0.000483
     36       0.001170  -0.000102   0.001500
     37      -0.000917  -0.000152  -0.001978
     38       0.000314   0.000065   0.002668
     39       0.003358   0.000282  -0.650085
     40       0.000811  -0.000121  -0.422542
     41      -0.001449  -0.000265   0.628273
     42      -0.001258   0.000963   0.000260
     43      -0.001590   0.000199   0.000440
     44      -0.001334   0.000435   0.000073
     45       0.001002   0.000268   0.000834
     46      -0.000906  -0.000771  -0.000446
     47       0.001180   0.001408   0.001631
     48       0.005849  -0.001987  -0.000240
     49       0.004479  -0.002226  -0.000006
     50      -0.003725   0.001441  -0.000117
     51       0.006660  -0.005047   0.000070
     52       0.010889  -0.014826  -0.000154
     53       0.007463  -0.008269  -0.000227
     54       0.357230  -0.307394   0.000784
     55       0.637920  -0.513652   0.001303
     56       0.242563  -0.195504   0.000713
     57       0.412449   0.519722   0.000843
     58      -0.471972  -0.563207  -0.001043
     59      -0.079986  -0.093842  -0.000013
     60       0.027533   0.007350   0.009364
     61       0.015535   0.017806   0.003867
     62      -0.049125  -0.006712  -0.006942


-----------
IR SPECTRUM
-----------

 Mode    freq (cm**-1)   T**2         TX         TY         TZ
-------------------------------------------------------------------
   6:        68.47   10.071911  ( -1.480386  -2.607456  -1.039972)
   7:        94.38    1.138557  (  0.799365   0.411526  -0.574647)
   8:       182.73    3.183149  ( -1.576718  -0.809559   0.204264)
   9:       238.39    1.084082  (  0.716735  -0.289510  -0.697536)
  10:       280.40   15.379090  ( -1.562806  -2.380961  -2.695877)
  11:       297.13   49.290024  ( -6.339607  -2.790385  -1.145929)
  12:       317.03   14.117433  (  2.635046   2.592590  -0.672638)
  13:       325.28  106.159683  (  2.120686  -7.223997  -7.033934)
  14:       378.34   10.688547  ( -0.830598  -3.078699   0.721295)
  15:       423.46   25.428298  (  4.277099  -1.826341  -1.949154)
  16:       462.71    9.290282  ( -1.643330  -2.485595  -0.641536)
  17:       605.87    6.000509  ( -0.497687  -0.088215  -2.396880)
  18:       767.65    1.876325  (  0.930760   0.985048  -0.199223)
  19:       827.75    9.174245  (  2.020011  -0.916403  -2.062524)
  20:       851.45   12.391981  (  1.372119   1.075513  -3.058193)
  21:       875.44   32.370537  ( -2.952853  -3.205081   3.657684)
  22:       922.99    2.722626  (  0.358068   0.533065   1.519952)
  23:       958.56    1.123314  ( -0.157258   0.078419   1.045196)
  24:       999.68   52.534134  ( -5.925403   1.145991  -4.013781)
  25:      1057.76   15.840361  (  2.844102  -2.309499   1.554883)
  26:      1065.03    5.073803  ( -2.037457  -0.957248   0.079036)
  27:      1072.77   10.657563  ( -2.977975   1.333654  -0.102926)
  28:      1118.59   15.481510  ( -3.515008   1.754535  -0.218712)
  29:      1162.55   19.399644  ( -0.572621  -1.329261   4.159906)
  30:      1187.16    1.957938  ( -0.242559   1.165709   0.735000)
  31:      1220.28   71.642183  ( -2.382139  -0.231751  -8.118737)
  32:      1294.42    0.791611  ( -0.194056   0.591148  -0.636002)
  33:      1307.92   11.671349  ( -2.944425   0.876155  -1.494678)
  34:      1336.54   10.480158  (  2.830478  -0.527948   1.479805)
  35:      1346.74   26.296845  (  3.685870   2.630739  -2.406329)
  36:      1380.54    3.620816  (  1.120932  -0.471814   1.463461)
  37:      1396.06    3.477664  ( -0.403860  -0.150496  -1.814363)
  38:      1413.89    8.550216  (  2.897807   0.387963  -0.049159)
  39:      1421.50    0.639222  (  0.099373   0.096955  -0.787367)
  40:      1432.01    3.524692  ( -1.614263  -0.293583  -0.912500)
  41:      1466.68   12.337059  ( -0.612411  -3.069592   1.593617)
  42:      1469.28    6.999821  (  1.433404  -2.222756  -0.067313)
  43:      1490.90    8.422655  ( -2.221828  -0.249067  -1.850433)
  44:      1497.44   42.167738  ( -3.092038  -1.078717  -5.607442)
  45:      1503.54   18.992762  (  3.289345   2.113985   1.924588)
  46:      1512.44  197.864506  (-12.485024   3.592265  -5.392988)
  47:      1640.89   15.324486  (  1.084040   3.664263   0.850011)
  48:      1673.97   33.515319  ( -4.370294   3.232677   1.991393)
  49:      3025.11  512.403942  (-20.123706  -2.677519  10.013555)
  50:      3041.25   29.797677  ( -4.054516  -0.560563   3.611695)
  51:      3047.32   15.713879  ( -0.899530  -1.779214   3.426241)
  52:      3052.27   44.000739  ( -5.310045   0.864790   3.880245)
  53:      3063.21   11.437255  (  1.650287   2.919440   0.436670)
  54:      3089.51    4.944109  (  1.203213  -1.843228   0.314479)
  55:      3108.14    1.495080  ( -0.711780  -0.770988  -0.627715)
  56:      3119.50   25.406538  ( -3.207022   3.456988  -1.780668)
  57:      3126.11    2.556524  ( -1.257771  -0.499731  -0.851356)
  58:      3144.60    6.306189  ( -0.204198  -1.866178  -1.667894)
  59:      3164.00    0.922097  (  0.181660  -0.876517  -0.347583)
  60:      3478.84   91.675030  (  9.468596   1.121928   0.872924)
  61:      3541.13   82.633749  (  2.085033  -8.521194  -2.382359)
  62:      3849.03   81.304530  ( -5.086840  -3.912717   6.333975)

The first frequency considered to be a vibration is 6
The total number of vibrations considered is 57


--------------------------
THERMOCHEMISTRY AT 298.15K
--------------------------

Temperature         ... 298.15 K
Pressure            ... 1.00 atm
Total Mass          ... 104.17 AMU

Throughout the following assumptions are being made:
  (1) The electronic state is orbitally nondegenerate
  (2) There are no thermally accessible electronically excited states
  (3) Hindered rotations indicated by low frequency modes) are not
      treated as such but are treated as vibrations and this may
      case some error
  (4) All equations used are the standard statistical mechanics
      equations for an ideal gas
  (5) All vibrations are strinctly harmonic


------------
INNER ENERGY
------------

The inner energy is: U= E(el) + E(ZPE) + E(vib) + E(rot) + E(trans)
    E(el)   - is the total energy from the electronic structure calculation
              = E(kin-el) + E(nuc-el) + E(el-el) + E(nuc-nuc)
    E(ZPE)  - the the zero temperature vibrational energy from the frequency calculation
    E(vib)  - the the finite temperature correction to E(ZPE) due to population
              of excietd vibrational states
    E(rot)  - is the rotational thermal energy
    E(trans)- is the translational thermal energy

Summary of contributions to the inner energy U:
Electronic energy                ...   -328.45261269 Eh
Zero point energy                ...      0.19864854 Eh     124.65 kcal/mol
Thermal vibrational correction   ...      0.00600703 Eh       3.77 kcal/mol
Thermal rotational correction    ...      0.00141627 Eh       0.89 kcal/mol
Thermal translational correction ...      0.00141627 Eh       0.89 kcal/mol
-----------------------------------------------------------------------
Total thermal energy                   -328.24512458 Eh


Summary of corrections to the electronic energy:
(perhaps to be used in another calculation)
Total thermal correction                  0.00883957 Eh       5.55 kcal/mol
Non-thermal (ZPE) correction              0.19864854 Eh     124.65 kcal/mol
-----------------------------------------------------------------------
Total correction                          0.20748811 Eh     130.20 kcal/mol


--------
ENTHALPY
--------

The enthalpy is H = U + kB*T
                kB is Boltzmann's constant
Total free energy                 ...   -328.24512458 Eh 
Thermal Enthalpy correction       ...      0.00094421 Eh       0.59 kcal/mol
-----------------------------------------------------------------------
Total Enthalpy                    ...   -328.24418037 Eh


-------
ENTROPY
-------

The entropy contributions are T*S = T*(S(el)+S(vib)+S(rot)+S(trans)
     S(el)   - electronic entropy
     S(vib)  - vibrational entropy
     S(rot)  - rotational entropy
     S(trans)- translational entropy
The entropies will be listed as mutliplied by the temperature to get
units of energy

Electronic entropy                ...      0.00000000 Eh      0.00 kcal/mol
Vibrational entropy               ...      0.01060938 Eh      6.66 kcal/mol
Rotational entropy                ...      0.01223552 Eh      7.68 kcal/mol
Translational entropy             ...      0.01892914 Eh     11.88 kcal/mol
-----------------------------------------------------------------------
Final entropy term                ...      0.04177404 Eh     26.21 kcal/mol


CAUTION: The rotational entropy is not quite correctly treated here
         because it includes a symmetry number that is not yet correctly
         implemented in ORCA!
For a nonlinear molecule the correct rotational entropy is:
    S(rot) = R*(ln(qrot/sn)+1.5)
    R    = 8.31441 J/mol/K = 1.987191683e-3 kcal/mol/K
    qrot = 284213.2157743
    sn is the rotational symmetry number. We have assumed 3 here
       if it is different for your molecule then you should correct
       the printed rotational entropy by manually evaluating the equation
       as given above

For convenience we print out the resulting values for sn=1 - 12:
 sn= 1  qrot/sn=  284213.2158 T*S(rot)=     8.33 kcal/mol T*S(tot)=    26.86 kcal/mol
 sn= 2  qrot/sn=  142106.6079 T*S(rot)=     7.92 kcal/mol T*S(tot)=    26.45 kcal/mol
 sn= 3  qrot/sn=   94737.7386 T*S(rot)=     7.68 kcal/mol T*S(tot)=    26.21 kcal/mol
 sn= 4  qrot/sn=   71053.3039 T*S(rot)=     7.51 kcal/mol T*S(tot)=    26.04 kcal/mol
 sn= 5  qrot/sn=   56842.6432 T*S(rot)=     7.38 kcal/mol T*S(tot)=    25.91 kcal/mol
 sn= 6  qrot/sn=   47368.8693 T*S(rot)=     7.27 kcal/mol T*S(tot)=    25.80 kcal/mol
 sn= 7  qrot/sn=   40601.8880 T*S(rot)=     7.18 kcal/mol T*S(tot)=    25.71 kcal/mol
 sn= 8  qrot/sn=   35526.6520 T*S(rot)=     7.10 kcal/mol T*S(tot)=    25.63 kcal/mol
 sn= 9  qrot/sn=   31579.2462 T*S(rot)=     7.03 kcal/mol T*S(tot)=    25.56 kcal/mol
 sn=10  qrot/sn=   28421.3216 T*S(rot)=     6.96 kcal/mol T*S(tot)=    25.50 kcal/mol
 sn=11  qrot/sn=   25837.5651 T*S(rot)=     6.91 kcal/mol T*S(tot)=    25.44 kcal/mol
 sn=12  qrot/sn=   23684.4346 T*S(rot)=     6.86 kcal/mol T*S(tot)=    25.39 kcal/mol


-------------------
GIBBS FREE ENTHALPY
-------------------

The Gibbs free enthalpy is G = H - T*S

Total enthalpy                    ...   -328.24418037 Eh 
Total entropy correction          ...     -0.04177404 Eh    -26.21 kcal/mol
-----------------------------------------------------------------------
Final Gibbs free enthalpy         ...   -328.28595441 Eh

For completeness - the Gibbs free enthalpy minus the electronic energy
G-E(el)                           ...      0.16665828 Eh    104.58 kcal/mol


Timings for individual modules:

Sum of individual times         ...     3827.161 sec (=  63.786 min)
GTO integral calculation        ...       14.412 sec (=   0.240 min)   0.4 %
SCF iterations                  ...      525.009 sec (=   8.750 min)  13.7 %
SCF Gradient evaluation         ...      275.539 sec (=   4.592 min)   7.2 %
Geometry relaxation             ...        0.435 sec (=   0.007 min)   0.0 %
Analytical frequency calculation...     3011.766 sec (=  50.196 min)  78.7 %
                             ****ORCA TERMINATED NORMALLY****
TOTAL RUN TIME: 0 days 1 hours 3 minutes 49 seconds 180 msec
