
                                 *****************
                                 * O   R   C   A *
                                 *****************

           --- An Ab Initio, DFT and Semiempirical electronic structure package ---

                  #######################################################
                  #                        -***-                        #
                  #  Department of molecular theory and spectroscopy    #
                  #              Directorship: Frank Neese              #
                  # Max Planck Institute for Chemical Energy Conversion #
                  #                  D-45470 Muelheim/Ruhr              #
                  #                       Germany                       #
                  #                                                     #
                  #                  All rights reserved                #
                  #                        -***-                        #
                  #######################################################


                         Program Version 3.0.3 - RELEASE   -


 With contributions from (in alphabetic order):
   Ute Becker             : Parallelization
   Dmytro Bykov           : SCF Hessian
   Dmitry Ganyushin       : Spin-Orbit,Spin-Spin,Magnetic field MRCI
   Andreas Hansen         : Spin unrestricted coupled pair/coupled cluster methods
   Dimitrios Liakos       : Extrapolation schemes; parallel MDCI
   Robert Izsak           : Overlap fitted RIJCOSX, COSX-SCS-MP3
   Christian Kollmar      : KDIIS, OOCD, Brueckner-CCSD(T), CCSD density
   Simone Kossmann        : Meta GGA functionals, TD-DFT gradient, OOMP2, MP2 Hessian
   Taras Petrenko         : DFT Hessian,TD-DFT gradient, ASA and ECA modules, normal mode analysis, Resonance Raman, ABS, FL, XAS/XES, NRVS
   Christoph Reimann      : Effective Core Potentials
   Michael Roemelt        : Restricted open shell CIS
   Christoph Riplinger    : Improved optimizer, TS searches, QM/MM, DLPNO-CCSD
   Barbara Sandhoefer     : DKH picture change effects
   Igor Schapiro          : Molecular dynamics
   Kantharuban Sivalingam : CASSCF convergence, NEVPT2
   Boris Wezisla          : Elementary symmetry handling
   Frank Wennmohs         : Technical directorship


 We gratefully acknowledge several colleagues who have allowed us to
 interface, adapt or use parts of their codes:
   Stefan Grimme, W. Hujo, H. Kruse, T. Risthaus : VdW corrections, initial TS optimization,
                                                   DFT functionals, gCP
   Ed Valeev                                     : LibInt (2-el integral package), F12 methods
   Garnet Chan, S. Sharma, R. Olivares           : DMRG
   Ulf Ekstrom                                   : XCFun DFT Library
   Mihaly Kallay                                 : mrcc  (arbitrary order and MRCC methods)
   Andreas Klamt, Michael Diedenhofen            : otool_cosmo (COSMO solvation model)
   Frank Weinhold                                : gennbo (NPA and NBO analysis)
   Christopher J. Cramer and Donald G. Truhlar   : smd solvation model


 Your calculation uses the libint2 library for the computation of 2-el integrals
 For citations please refer to: http://libint.valeyev.net

 This ORCA versions uses:
   CBLAS   interface :  Fast vector & matrix operations
   LAPACKE interface :  Fast linear algebra routines
   SCALAPACK package :  Parallel linear algebra routines


Your calculation utilizes the basis: Ahlrichs-TZV
Cite in your paper:
H - Kr: A. Schaefer, H. Horn and R. Ahlrichs, J. Chem. Phys. 97, 2571 (1992).

The def2-TZV basis will be loaded
Cite in your paper:
 	F. Weigend, R. Ahlrichs, Phys. Chem. Chem. Phys. 2005, 7, 3297.

================================================================================
                                        WARNINGS
                       Please study these warnings very carefully!
================================================================================
Now building the actual basis set
WARNING: Geometry optimizations can change the point-group symmetry!

WARNING: Geometry Optimization
  ===> : Switching off AutoStart
         For restart on a previous wavefunction, please use MOREAD


INFO   : the flag for use of LIBINT has been found!

================================================================================
                                       INPUT FILE
================================================================================
NAME = 5319_+.inp
|  1> ! NORI PBE0 def2-TZVP UseSym TightOPT Freq TightSCF Grid3 FinalGrid5 XYZFile
|  2> % pal
|  3>     nprocs 8
|  4> end
|  5> %method
|  6>     SymThresh 5.0e-2
|  7> end
|  8> % geom 
|  9>     MaxIter 10
| 10> end 
| 11> % maxcore 2000
| 12> % output
| 13>     printlevel mini
| 14>     print[ P_Basis ] 0
| 15>     print[ P_SCFInfo ] 1
| 16>     print[ P_SCFIterInfo ] 1
| 17>     print[ P_OrbEn ] 0
| 18>     print[ P_Cartesian ] 0
| 19> end
| 20> % elprop
| 21>     Dipole false
| 22> end
| 23> *xyz 1 1
| 24>  C        0.9862357351     0.2363783382    -0.2441639153 
| 25>  C        2.4538714172     0.0351127819     0.0629597410 
| 26>  N        3.0441452057    -0.8787049925    -0.9921410810 
| 27>  C        3.2310753650     1.3207601106     0.1363455693 
| 28>  C        4.7048848985     1.4862432024    -0.1191139354 
| 29>  C        3.6915795679     2.1098504955    -1.0382351158 
| 30>  O        3.4179333790     3.4567939239    -0.9884506129 
| 31>  H        0.4369206229    -0.7075629330    -0.2745786149 
| 32>  H        0.8481766665     0.7689540228    -1.1886592803 
| 33>  H        0.5417110728     0.8479125929     0.5415109094 
| 34>  H        2.5781707467    -0.5203062481     0.9975624969 
| 35>  H        2.9447119910    -0.4649297020    -1.9220047655 
| 36>  H        2.5647467671    -1.7801700692    -0.9998062330 
| 37>  H        4.0382495382    -1.0436766098    -0.8221034643 
| 38>  H        2.8570083570     1.9479395825     0.9396831551 
| 39>  H        5.2406497505     2.1334551395     0.5634981749 
| 40>  H        5.3088146356     0.6720954289    -0.5099090853 
| 41>  H        3.6100856980     1.6618701835    -2.0326096060 
| 42>  H        4.1063485853     3.9470247518    -1.4496443368 
| 43> *
| 44> 
| 45>                          ****END OF INPUT****
================================================================================

The point group is C1 - hence turning off symmetry
If this is a round-off problem, please increase the symmetry
        detection tolerance (%method SymThresh)


                       *****************************
                       * Geometry Optimization Run *
                       *****************************

Geometry optimization settings:
Update method            Update   .... BFGS
Choice of coordinates    CoordSys .... Redundant Internals
Initial Hessian          InHess   .... Almoef's Model

Convergence Tolerances:
Energy Change            TolE     ....  1.0000e-06 Eh
Max. Gradient            TolMAXG  ....  1.0000e-04 Eh/bohr
RMS Gradient             TolRMSG  ....  3.0000e-05 Eh/bohr
Max. Displacement        TolMAXD  ....  1.0000e-03 bohr
RMS Displacement         TolRMSD  ....  6.0000e-04 bohr

------------------------------------------------------------------------------
                        ORCA OPTIMIZATION COORDINATE SETUP
------------------------------------------------------------------------------

The optimization will be done in new redundant internal coordinates
Making redundant internal coordinates   ...  (new redundants) done
Evaluating the initial hessian          ...  (Almloef) done
Evaluating the coordinates              ...  done
Calculating the B-matrix                .... done
Calculating the G-matrix                .... done
Diagonalizing the G-matrix              .... done
The first mode is                       ....   59
The number of degrees of freedom        ....   51

    -----------------------------------------------------------------
                    Redundant Internal Coordinates


    -----------------------------------------------------------------
         Definition                    Initial Value    Approx d2E/dq
    -----------------------------------------------------------------
      1. B(C   1,C   0)                  1.5129         0.397833   
      2. B(N   2,C   1)                  1.5155         0.352904   
      3. B(C   3,C   1)                  1.5041         0.410863   
      4. B(C   4,C   3)                  1.5049         0.409642   
      5. B(C   5,C   4)                  1.5035         0.411799   
      6. B(C   5,C   3)                  1.4881         0.435779   
      7. B(O   6,C   5)                  1.3754         0.590516   
      8. B(H   7,C   0)                  1.0926         0.356723   
      9. B(H   8,C   0)                  1.0931         0.356082   
     10. B(H   9,C   0)                  1.0903         0.359638   
     11. B(H  10,C   1)                  1.0943         0.354498   
     12. B(H  11,N   2)                  1.0226         0.413111   
     13. B(H  12,N   2)                  1.0210         0.415511   
     14. B(H  13,N   2)                  1.0219         0.414131   
     15. B(H  14,C   3)                  1.0856         0.365903   
     16. B(H  15,C   4)                  1.0825         0.370109   
     17. B(H  16,C   4)                  1.0864         0.364879   
     18. B(H  17,C   5)                  1.0937         0.355281   
     19. B(H  18,O   6)                  0.9628         0.514677   
     20. A(C   1,C   0,H   9)          108.8949         0.327624   
     21. A(H   8,C   0,H   9)          107.3298         0.290269   
     22. A(C   1,C   0,H   8)          111.2701         0.327088   
     23. A(H   7,C   0,H   9)          107.4365         0.290351   
     24. A(C   1,C   0,H   7)          112.2380         0.327185   
     25. A(H   7,C   0,H   8)          109.4752         0.289899   
     26. A(N   2,C   1,C   3)          110.3721         0.363458   
     27. A(N   2,C   1,H  10)          104.1419         0.318579   
     28. A(C   3,C   1,H  10)          109.4805         0.328589   
     29. A(C   0,C   1,C   3)          113.4197         0.373344   
     30. A(C   0,C   1,N   2)          108.4652         0.361463   
     31. A(C   0,C   1,H  10)          110.5549         0.326848   
     32. A(H  11,N   2,H  13)          108.1315         0.298926   
     33. A(C   1,N   2,H  13)          111.1236         0.324031   
     34. A(H  11,N   2,H  12)          107.7437         0.299084   
     35. A(C   1,N   2,H  12)          110.7763         0.324208   
     36. A(C   1,N   2,H  11)          110.5612         0.323899   
     37. A(H  12,N   2,H  13)          108.3882         0.299201   
     38. A(C   5,C   3,H  14)          112.6040         0.333550   
     39. A(C   4,C   3,H  14)          113.5481         0.330150   
     40. A(C   1,C   3,H  14)          110.6011         0.330313   
     41. A(C   4,C   3,C   5)           60.3061         0.379072   
     42. A(C   1,C   3,C   5)          125.0754         0.379268   
     43. A(C   1,C   3,C   4)          126.2815         0.375233   
     44. A(C   5,C   4,H  15)          118.1033         0.331062   
     45. A(C   3,C   4,H  15)          116.3204         0.330775   
     46. A(C   3,C   4,C   5)           59.2922         0.375380   
     47. A(H  15,C   4,H  16)          113.5618         0.292703   
     48. A(C   5,C   4,H  16)          117.7481         0.330284   
     49. A(C   3,C   4,H  16)          121.5379         0.329997   
     50. A(C   4,C   5,O   6)          121.2098         0.397534   
     51. A(O   6,C   5,H  17)          114.7863         0.347079   
     52. A(C   3,C   5,O   6)          115.4153         0.401512   
     53. A(C   4,C   5,H  17)          115.8585         0.328833   
     54. A(C   3,C   5,H  17)          118.5157         0.331925   
     55. A(C   3,C   5,C   4)           60.4018         0.379417   
     56. A(C   5,O   6,H  18)          109.8196         0.366392   
     57. D(C   3,C   1,C   0,H   8)     57.9927         0.012562   
     58. D(N   2,C   1,C   0,H   8)    -65.0043         0.012562   
     59. D(H  10,C   1,C   0,H   9)     63.2926         0.012562   
     60. D(N   2,C   1,C   0,H   9)    176.8904         0.012562   
     61. D(H  10,C   1,C   0,H   7)    -55.5307         0.012562   
     62. D(C   3,C   1,C   0,H   9)    -60.1126         0.012562   
     63. D(N   2,C   1,C   0,H   7)     58.0670         0.012562   
     64. D(H  10,C   1,C   0,H   8)   -178.6021         0.012562   
     65. D(C   3,C   1,C   0,H   7)   -178.9359         0.012562   
     66. D(H  12,N   2,C   1,H  10)     58.4010         0.011471   
     67. D(H  12,N   2,C   1,C   3)    175.8151         0.011471   
     68. D(H  11,N   2,C   1,H  10)    177.7707         0.011471   
     69. D(H  11,N   2,C   1,C   0)     60.0044         0.011471   
     70. D(H  12,N   2,C   1,C   0)    -59.3653         0.011471   
     71. D(H  13,N   2,C   1,H  10)    -62.1478         0.011471   
     72. D(H  13,N   2,C   1,C   3)     55.2663         0.011471   
     73. D(H  13,N   2,C   1,C   0)   -179.9141         0.011471   
     74. D(H  11,N   2,C   1,C   3)    -64.8152         0.011471   
     75. D(H  14,C   3,C   1,H  10)    -61.8030         0.013371   
     76. D(H  14,C   3,C   1,N   2)   -175.8703         0.013371   
     77. D(C   5,C   3,C   1,H  10)    158.2296         0.013371   
     78. D(C   5,C   3,C   1,C   0)    -77.7782         0.013371   
     79. D(C   4,C   3,C   1,H  10)     81.8461         0.013371   
     80. D(C   4,C   3,C   1,N   2)    -32.2212         0.013371   
     81. D(C   5,C   3,C   1,N   2)     44.1624         0.013371   
     82. D(C   4,C   3,C   1,C   0)   -154.1617         0.013371   
     83. D(H  14,C   3,C   1,C   0)     62.1891         0.013371   
     84. D(H  15,C   4,C   3,C   5)    108.5087         0.013294   
     85. D(H  15,C   4,C   3,C   1)   -137.7868         0.013294   
     86. D(C   5,C   4,C   3,H  14)   -103.5406         0.013294   
     87. D(C   5,C   4,C   3,C   1)    113.7045         0.013294   
     88. D(H  16,C   4,C   3,H  14)    150.7444         0.013294   
     89. D(H  16,C   4,C   3,C   5)   -105.7150         0.013294   
     90. D(H  16,C   4,C   3,C   1)      7.9895         0.013294   
     91. D(H  15,C   4,C   3,H  14)      4.9681         0.013294   
     92. D(H  17,C   5,C   4,H  16)      2.4600         0.013430   
     93. D(H  17,C   5,C   4,H  15)    144.9260         0.013430   
     94. D(H  17,C   5,C   4,C   3)   -109.5615         0.013430   
     95. D(O   6,C   5,C   4,H  16)   -144.5073         0.013430   
     96. D(O   6,C   5,C   4,C   3)    103.4712         0.013430   
     97. D(C   3,C   5,C   4,H  16)    112.0215         0.013430   
     98. D(C   3,C   5,C   4,H  15)   -105.5126         0.013430   
     99. D(H  17,C   5,C   3,H  14)   -149.6819         0.015007   
    100. D(H  17,C   5,C   3,C   4)    105.2028         0.015007   
    101. D(H  17,C   5,C   3,C   1)    -10.3889         0.015007   
    102. D(O   6,C   5,C   4,H  15)     -2.0414         0.013430   
    103. D(O   6,C   5,C   3,H  14)     -7.8317         0.015007   
    104. D(O   6,C   5,C   3,C   4)   -112.9470         0.015007   
    105. D(O   6,C   5,C   3,C   1)    131.4613         0.015007   
    106. D(C   4,C   5,C   3,H  14)    105.1154         0.015007   
    107. D(C   4,C   5,C   3,C   1)   -115.5917         0.015007   
    108. D(H  18,O   6,C   5,H  17)    -68.2978         0.028036   
    109. D(H  18,O   6,C   5,C   4)     78.9974         0.028036   
    110. D(H  18,O   6,C   5,C   3)    148.4188         0.028036   
    -----------------------------------------------------------------

Number of atoms                         .... 19
Number of degrees of freedom            .... 110

         *************************************************************
         *                GEOMETRY OPTIMIZATION CYCLE   1            *
         *************************************************************


           ************************************************************
           *        Program running with 8 parallel MPI-processes     *
           *              working on a common directory               *
           ************************************************************
           ************************************************************
           *              Shut down parallel processing               *
           ************************************************************


           ************************************************************
           *        Program running with 8 parallel MPI-processes     *
           *              working on a common directory               *
           ************************************************************
------------
SCF SETTINGS
------------
Hamiltonian:
 Density Functional     Method          .... DFT(GTOs)
 Exchange Functional    Exchange        .... PBE
   PBE kappa parameter  XKappa          ....  0.804000
 Correlation Functional Correlation     .... PBE
 LDA part of GGA corr.  LDAOpt          .... PW91-LDA
 Gradients option       PostSCFGGA      .... off
 Hybrid DFT is turned on
   Fraction HF Exchange ScalHFX         ....  0.250000
   Scaling of DF-GGA-X  ScalDFX         ....  0.750000
   Scaling of DF-GGA-C  ScalDFC         ....  1.000000
   Scaling of DF-LDA-C  ScalLDAC        ....  1.000000
   Perturbative correction              ....  0.000000
   NL short-range parameter             ....  6.900000


General Settings:
 Integral files         IntName         .... 5319_+
 Hartree-Fock type      HFTyp           .... RHF
 Total Charge           Charge          ....    1
 Multiplicity           Mult            ....    1
 Number of Electrons    NEL             ....   56
 Basis Dimension        Dim             ....  289
 Nuclear Repulsion      ENuc            ....    334.8503115824 Eh

Convergence Acceleration:
 DIIS                   CNVDIIS         .... on
   Start iteration      DIISMaxIt       ....    12
   Startup error        DIISStart       ....  0.200000
   # of expansion vecs  DIISMaxEq       ....     5
   Bias factor          DIISBfac        ....   1.050
   Max. coefficient     DIISMaxC        ....  10.000
 Newton-Raphson         CNVNR           .... off
 SOSCF                  CNVSOSCF        .... on
   Start iteration      SOSCFMaxIt      ....   150
   Startup grad/error   SOSCFStart      ....  0.003300
 Level Shifting         CNVShift        .... on
   Level shift para.    LevelShift      ....    0.2500
   Turn off err/grad.   ShiftErr        ....    0.0010
 Zerner damping         CNVZerner       .... off
 Static damping         CNVDamp         .... on
   Fraction old density DampFac         ....    0.7000
   Max. Damping (<1)    DampMax         ....    0.9800
   Min. Damping (>=0)   DampMin         ....    0.0000
   Turn off err/grad.   DampErr         ....    0.1000
 Fernandez-Rico         CNVRico         .... off

SCF Procedure:
 Maximum # iterations   MaxIter         ....   125
 SCF integral mode      SCFMode         .... Direct
   Integral package                     .... LIBINT
 Reset frequeny         DirectResetFreq ....    20
 Integral Threshold     Thresh          ....  2.500e-11 Eh
 Primitive CutOff       TCut            ....  2.500e-12 Eh

Convergence Tolerance:
 Convergence Check Mode ConvCheckMode   .... Total+1el-Energy
 Energy Change          TolE            ....  1.000e-08 Eh
 1-El. energy change                    ....  1.000e-05 Eh
 Orbital Gradient       TolG            ....  1.000e-05
 Orbital Rotation angle TolX            ....  1.000e-05
 DIIS Error             TolErr          ....  5.000e-07


Diagonalization of the overlap matrix:
Smallest eigenvalue                        ... 1.202e-04
Time for diagonalization                   ...    0.994 sec
Threshold for overlap eigenvalues          ... 1.000e-08
Number of eigenvalues below threshold      ... 0
Time for construction of square roots      ...    0.021 sec
Total time needed                          ...    1.015 sec

-------------------
DFT GRID GENERATION
-------------------

General Integration Accuracy     IntAcc      ...  4.340
Radial Grid Type                 RadialGrid  ... Gauss-Chebyshev
Angular Grid (max. acc.)         AngularGrid ... Lebedev-194
Angular grid pruning method      GridPruning ... 3 (G Style)
Weight generation scheme         WeightScheme... Becke
Basis function cutoff            BFCut       ...    1.0000e-11
Integration weight cutoff        WCut        ...    1.0000e-14
Grids for H and He will be reduced by one unit

# of grid points (after initial pruning)     ...  41422 (   0.0 sec)
# of grid points (after weights+screening)   ...  37665 (   0.3 sec)
nearest neighbour list constructed           ...    0.0 sec
Grid point re-assignment to atoms done       ...    0.0 sec
Grid point division into batches done        ...    0.1 sec
Reduced shell lists constructed in    0.3 sec

Total number of grid points                  ...    37665
Total number of batches                      ...      600
Average number of points per batch           ...       62
Average number of grid points per atom       ...     1982
Average number of shells per batch           ...    99.74 (79.79%)
Average number of basis functions per batch  ...   236.89 (81.97%)
Average number of large shells per batch     ...    81.54 (81.75%)
Average number of large basis fcns per batch ...   191.36 (80.78%)
Maximum spatial batch extension              ...   2.16,  2.62,  2.37 au
Average spatial batch extension              ...   0.14,  0.14,  0.14 au

Time for grid setup =    1.175 sec

Loading Hartree-Fock densities                     ... done
Calculating cut-offs                               ... done
Setting up the integral package                    ... done
Initializing the effective Hamiltonian             ... done
Starting the Coulomb interaction                   ... done (   0.1 sec)
Reading the grid                                   ... done
Mapping shells                                     ... done
Starting the XC term evaluation                    ... done (   0.6 sec)
  promolecular density results
     # of electrons  =     56.993261692
     EX              =    -43.900131588
     EC              =     -1.887829341
     EX+EC           =    -45.787960929
Transforming the Hamiltonian                       ... done (   0.0 sec)
Diagonalizing the Hamiltonian                      ... done (   0.8 sec)
Back transforming the eigenvectors                 ... done (   0.0 sec)
Now organizing SCF variables                       ... done
--------------
SCF ITERATIONS
--------------
ITER       Energy         Delta-E        Max-DP      RMS-DP      [F,P]     Damp
               ***  Starting incremental Fock matrix formation  ***
  0   -326.9981045981   0.000000000000 0.11448728  0.00143281  0.2373979 0.7000
  1   -327.0890451822  -0.090940584041 0.09894856  0.00115423  0.1008947 0.7000
                               ***Turning on DIIS***
  2   -327.1270248387  -0.037979656484 0.12855882  0.00184384  0.0367341 0.0000
  3   -327.1843545875  -0.057329748780 0.08748324  0.00089696  0.0581400 0.0000
  4   -327.1977741618  -0.013419574370 0.01882617  0.00023581  0.0084303 0.0000
  5   -327.1982219139  -0.000447752087 0.00871341  0.00011298  0.0065135 0.0000
                      *** Initiating the SOSCF procedure ***
                           *** Shutting down DIIS ***
                      *** Re-Reading the Fockian *** 
                      *** Removing any level shift *** 
ITER      Energy       Delta-E        Grad      Rot      Max-DP    RMS-DP
  6   -327.19827811  -0.0000561999  0.000298  0.000298  0.002571  0.000050
               *** Restarting incremental Fock matrix formation ***
  7   -327.19828184  -0.0000037257  0.000080  0.000119  0.000284  0.000007
  8   -327.19828171   0.0000001327  0.000097  0.000069  0.000177  0.000004
  9   -327.19828226  -0.0000005550  0.000004  0.000015  0.000052  0.000001
 10   -327.19828226  -0.0000000004  0.000003  0.000002  0.000022  0.000000
                  ***Gradient check signals convergence***
              ***Rediagonalizing the Fockian in SOSCF/NRSCF***

               *****************************************************
               *                     SUCCESS                       *
               *           SCF CONVERGED AFTER  11 CYCLES          *
               *****************************************************

Setting up the final grid:

General Integration Accuracy     IntAcc      ...  5.010
Radial Grid Type                 RadialGrid  ... Gauss-Chebyshev
Angular Grid (max. acc.)         AngularGrid ... Lebedev-434
Angular grid pruning method      GridPruning ... 3 (G Style)
Weight generation scheme         WeightScheme... Becke
Basis function cutoff            BFCut       ...    1.0000e-11
Integration weight cutoff        WCut        ...    1.0000e-14
Grids for H and He will be reduced by one unit

# of grid points (after initial pruning)     ... 155226 (   0.0 sec)
# of grid points (after weights+screening)   ... 139325 (   4.9 sec)
nearest neighbour list constructed           ...    0.0 sec
Grid point re-assignment to atoms done       ...    0.0 sec
Grid point division into batches done        ...    1.2 sec
Reduced shell lists constructed in    1.5 sec

Total number of grid points                  ...   139325
Total number of batches                      ...     2187
Average number of points per batch           ...       63
Average number of grid points per atom       ...     7333
Average number of shells per batch           ...    98.86 (79.09%)
Average number of basis functions per batch  ...   235.25 (81.40%)
Average number of large shells per batch     ...    80.41 (81.33%)
Average number of large basis fcns per batch ...   189.16 (80.41%)
Maximum spatial batch extension              ...   2.03,  1.73,  2.17 au
Average spatial batch extension              ...   0.10,  0.09,  0.09 au

Final grid set up in    7.8 sec
Final integration                            ... done (   1.4 sec)
Change in XC energy                          ...     0.000205250
Integrated number of electrons               ...    56.000106844
Previous integrated no of electrons          ...    55.999449828
Total Energy       :         -327.19807701 Eh           -8903.51232 eV
  Last Energy change         ...   -8.0195e-10  Tolerance :   1.0000e-08
  Last MAX-Density change    ...    6.0063e-06  Tolerance :   1.0000e-07
             **** THE GBW FILE WAS UPDATED (5319_+.gbw) ****
             **** DENSITY FILE WAS UPDATED (5319_+.scfp.tmp) ****
             **** ENERGY FILE WAS UPDATED (5319_+.en.tmp) ****
Total SCF time: 0 days 0 hours 2 min 5 sec 
           ************************************************************
           *              Shut down parallel processing               *
           ************************************************************

-------------------------   --------------------
FINAL SINGLE POINT ENERGY      -327.198077012566
-------------------------   --------------------



           ************************************************************
           *        Program running with 8 parallel MPI-processes     *
           *              working on a common directory               *
           ************************************************************
------------------------------------------------------------------------------
                         ORCA SCF GRADIENT CALCULATION
------------------------------------------------------------------------------

Gradient of the Kohn-Sham DFT energy:
Kohn-Sham wavefunction type      ... RKS
Hartree-Fock exchange scaling    ...    0.250
Number of operators              ...    1
Number of atoms                  ...   19
Basis set dimensions             ...  289
Integral neglect threshold       ... 2.5e-11
Integral primitive cutoff        ... 2.5e-12

Nuclear repulsion gradient       ... done
One Electron Gradient            ... done
Pre-screening matrix             ... done
Starting the two electron gradient:
Two electron gradient done
Exchange-correlation gradient    ... done

------------------
CARTESIAN GRADIENT
------------------

   1   C   :   -0.000030906    0.000107166   -0.000321163
   2   C   :    0.000280008    0.000223339    0.000264594
   3   N   :    0.000081496    0.000079761   -0.000121649
   4   C   :    0.000256436   -0.000205419    0.000086329
   5   C   :    0.000108316   -0.000146025   -0.000232363
   6   C   :   -0.000061186    0.000079048    0.000023823
   7   O   :   -0.000015080    0.000000081    0.000051427
   8   H   :   -0.000031060   -0.000115282    0.000135835
   9   H   :    0.000012943   -0.000062521    0.000099167
  10   H   :   -0.000050307    0.000034940    0.000042992
  11   H   :   -0.000102754   -0.000048026   -0.000056657
  12   H   :   -0.000019059   -0.000030123   -0.000228967
  13   H   :   -0.000031033   -0.000133754    0.000180796
  14   H   :   -0.000010445    0.000037809   -0.000019254
  15   H   :   -0.000142311    0.000071842    0.000029819
  16   H   :   -0.000084016   -0.000012274    0.000054199
  17   H   :   -0.000053255    0.000072744    0.000051530
  18   H   :   -0.000075269    0.000036048    0.000033902
  19   H   :   -0.000032515    0.000010647   -0.000074359

Norm of the cartesian gradient     ...    0.000891659
RMS gradient                       ...    0.000118103
MAX gradient                       ...    0.000321163

-------
TIMINGS
-------

Total SCF gradient time            ...       54.291 sec

One electron gradient       ....       0.233 sec  (  0.4%)
Prescreening matrices       ....       0.951 sec  (  1.8%)
Two electron gradient       ....      46.267 sec  ( 85.2%)
XC gradient                 ....       4.964 sec  (  9.1%)
           ************************************************************
           *              Shut down parallel processing               *
           ************************************************************
------------------------------------------------------------------------------
                         ORCA GEOMETRY RELAXATION STEP
------------------------------------------------------------------------------

Reading the OPT-File                    .... done
Getting information on internals        .... done
Copying old internal coords+grads       .... done
Making the new internal coordinates     .... (new redundants).... done
Validating the new internal coordinates .... (new redundants).... done
Calculating the B-matrix                .... done
Calculating the G,G- and P matrices     .... done
Transforming gradient to internals      .... done
Projecting the internal gradient        .... done
Number of atoms                         ....  19
Number of internal coordinates          .... 110
Current Energy                          ....  -327.198077013 Eh
Current gradient norm                   ....     0.000891659 Eh/bohr
Maximum allowed component of the step   ....  0.300
Current trust radius                    ....  0.300
Evaluating the initial hessian          ....  (Almloef) done
Projecting the Hessian                  .... done
Forming the augmented Hessian           .... done
Diagonalizing the augmented Hessian     .... done
Last element of RFO vector              ....  0.999927859
Lowest eigenvalues of augmented Hessian:
 -0.000004478  0.011471173  0.012562504  0.013371416  0.028035579
Length of the computed step             ....  0.012012410
The final length of the internal step   ....  0.012012410
Converting the step to cartesian space:
 Initial RMS(Int)=    0.0011453384
Transforming coordinates:
 Iter   0:  RMS(Cart)=    0.0033192833 RMS(Int)=    0.0011450596
 Iter   1:  RMS(Cart)=    0.0000042656 RMS(Int)=    0.0000024452
 Iter   2:  RMS(Cart)=    0.0000000134 RMS(Int)=    0.0000000058
done
Storing new coordinates                 .... done

                                .--------------------.
          ----------------------|Geometry convergence|---------------------
          Item                value                 Tolerance   Converged
          -----------------------------------------------------------------
          RMS gradient        0.00006834            0.00003000      NO
          MAX gradient        0.00022044            0.00010000      NO
          RMS step            0.00114534            0.00060000      NO
          MAX step            0.00374087            0.00100000      NO
          ....................................................
          Max(Bonds)      0.0003      Max(Angles)    0.07
          Max(Dihed)        0.21      Max(Improp)    0.00
          -----------------------------------------------------------------

The optimization has not yet converged - more geometry cycles are needed


    ---------------------------------------------------------------------------
                         Redundant Internal Coordinates
                            (Angstroem and degrees)

        Definition                    Value    dE/dq     Step     New-Value
    ----------------------------------------------------------------------------
     1. B(C   1,C   0)                1.5129 -0.000032  0.0000    1.5129   
     2. B(N   2,C   1)                1.5155  0.000104 -0.0002    1.5153   
     3. B(C   3,C   1)                1.5041  0.000075 -0.0001    1.5040   
     4. B(C   4,C   3)                1.5049 -0.000013  0.0001    1.5050   
     5. B(C   5,C   4)                1.5035  0.000037 -0.0002    1.5033   
     6. B(C   5,C   3)                1.4881 -0.000101  0.0002    1.4883   
     7. B(O   6,C   5)                1.3754 -0.000001  0.0000    1.3754   
     8. B(H   7,C   0)                1.0926 -0.000173  0.0003    1.0928   
     9. B(H   8,C   0)                1.0931  0.000044 -0.0001    1.0930   
    10. B(H   9,C   0)                1.0903  0.000069 -0.0001    1.0902   
    11. B(H  10,C   1)                1.0943  0.000123 -0.0002    1.0941   
    12. B(H  11,N   2)                1.0226 -0.000154  0.0002    1.0228   
    13. B(H  12,N   2)                1.0210 -0.000220  0.0003    1.0213   
    14. B(H  13,N   2)                1.0219 -0.000037  0.0000    1.0220   
    15. B(H  14,C   3)                1.0856  0.000154 -0.0002    1.0854   
    16. B(H  15,C   4)                1.0825  0.000086 -0.0001    1.0824   
    17. B(H  16,C   4)                1.0864 -0.000101  0.0001    1.0866   
    18. B(H  17,C   5)                1.0937 -0.000067  0.0001    1.0938   
    19. B(H  18,O   6)                0.9628 -0.000075  0.0001    0.9629   
    20. A(C   1,C   0,H   9)          108.89  0.000045   -0.01    108.89   
    21. A(H   8,C   0,H   9)          107.33  0.000004    0.01    107.34   
    22. A(C   1,C   0,H   8)          111.27 -0.000112    0.02    111.29   
    23. A(H   7,C   0,H   9)          107.44  0.000011   -0.01    107.43   
    24. A(C   1,C   0,H   7)          112.24 -0.000039    0.00    112.24   
    25. A(H   7,C   0,H   8)          109.48  0.000096   -0.02    109.45   
    26. A(N   2,C   1,C   3)          110.37  0.000179   -0.07    110.30   
    27. A(N   2,C   1,H  10)          104.14 -0.000084    0.05    104.19   
    28. A(C   3,C   1,H  10)          109.48 -0.000084    0.05    109.53   
    29. A(C   0,C   1,C   3)          113.42 -0.000024   -0.02    113.40   
    30. A(C   0,C   1,N   2)          108.47 -0.000019   -0.03    108.44   
    31. A(C   0,C   1,H  10)          110.55  0.000030    0.02    110.58   
    32. A(H  11,N   2,H  13)          108.13 -0.000042   -0.01    108.13   
    33. A(C   1,N   2,H  13)          111.12 -0.000027    0.00    111.13   
    34. A(H  11,N   2,H  12)          107.74 -0.000087    0.02    107.76   
    35. A(C   1,N   2,H  12)          110.78 -0.000033    0.01    110.79   
    36. A(C   1,N   2,H  11)          110.56  0.000206   -0.04    110.52   
    37. A(H  12,N   2,H  13)          108.39 -0.000022    0.02    108.41   
    38. A(C   5,C   3,H  14)          112.60 -0.000034    0.02    112.63   
    39. A(C   4,C   3,H  14)          113.55  0.000012   -0.01    113.54   
    40. A(C   1,C   3,H  14)          110.60 -0.000045    0.02    110.63   
    41. A(C   4,C   3,C   5)           60.31  0.000038   -0.01     60.29   
    42. A(C   1,C   3,C   5)          125.08  0.000067   -0.05    125.02   
    43. A(C   1,C   3,C   4)          126.28  0.000001    0.01    126.29   
    44. A(C   5,C   4,H  15)          118.10 -0.000038    0.01    118.11   
    45. A(C   3,C   4,H  15)          116.32 -0.000022    0.01    116.33   
    46. A(C   3,C   4,C   5)           59.29 -0.000046    0.01     59.30   
    47. A(H  15,C   4,H  16)          113.56  0.000016   -0.01    113.55   
    48. A(C   5,C   4,H  16)          117.75  0.000041   -0.00    117.75   
    49. A(C   3,C   4,H  16)          121.54  0.000020   -0.00    121.54   
    50. A(C   4,C   5,O   6)          121.21 -0.000009    0.00    121.21   
    51. A(O   6,C   5,H  17)          114.79  0.000003    0.00    114.79   
    52. A(C   3,C   5,O   6)          115.42 -0.000027    0.01    115.43   
    53. A(C   4,C   5,H  17)          115.86  0.000014   -0.01    115.84   
    54. A(C   3,C   5,H  17)          118.52  0.000010    0.00    118.52   
    55. A(C   3,C   5,C   4)           60.40  0.000008    0.00     60.40   
    56. A(C   5,O   6,H  18)          109.82 -0.000055    0.01    109.83   
    57. D(C   3,C   1,C   0,H   8)     57.99  0.000080   -0.03     57.96   
    58. D(N   2,C   1,C   0,H   8)    -65.00 -0.000120    0.10    -64.91   
    59. D(H  10,C   1,C   0,H   9)     63.29  0.000008    0.03     63.32   
    60. D(N   2,C   1,C   0,H   9)    176.89 -0.000086    0.08    176.97   
    61. D(H  10,C   1,C   0,H   7)    -55.53 -0.000012    0.03    -55.50   
    62. D(C   3,C   1,C   0,H   9)    -60.11  0.000113   -0.05    -60.16   
    63. D(N   2,C   1,C   0,H   7)     58.07 -0.000106    0.09     58.15   
    64. D(H  10,C   1,C   0,H   8)   -178.60 -0.000025    0.04   -178.56   
    65. D(C   3,C   1,C   0,H   7)   -178.94  0.000094   -0.04   -178.97   
    66. D(H  12,N   2,C   1,H  10)     58.40 -0.000037    0.14     58.54   
    67. D(H  12,N   2,C   1,C   3)    175.82 -0.000096    0.20    176.01   
    68. D(H  11,N   2,C   1,H  10)    177.77 -0.000034    0.14    177.91   
    69. D(H  11,N   2,C   1,C   0)     60.00 -0.000017    0.10     60.11   
    70. D(H  12,N   2,C   1,C   0)    -59.37 -0.000020    0.10    -59.26   
    71. D(H  13,N   2,C   1,H  10)    -62.15  0.000032    0.11    -62.04   
    72. D(H  13,N   2,C   1,C   3)     55.27 -0.000028    0.16     55.43   
    73. D(H  13,N   2,C   1,C   0)   -179.91  0.000048    0.07   -179.84   
    74. D(H  11,N   2,C   1,C   3)    -64.82 -0.000093    0.19    -64.62   
    75. D(H  14,C   3,C   1,H  10)    -61.80  0.000037   -0.16    -61.96   
    76. D(H  14,C   3,C   1,N   2)   -175.87  0.000086   -0.20   -176.07   
    77. D(C   5,C   3,C   1,H  10)    158.23  0.000075   -0.17    158.06   
    78. D(C   5,C   3,C   1,C   0)    -77.78  0.000033   -0.11    -77.89   
    79. D(C   4,C   3,C   1,H  10)     81.85 -0.000017   -0.12     81.72   
    80. D(C   4,C   3,C   1,N   2)    -32.22  0.000033   -0.17    -32.39   
    81. D(C   5,C   3,C   1,N   2)     44.16  0.000124   -0.21     43.95   
    82. D(C   4,C   3,C   1,C   0)   -154.16 -0.000059   -0.07   -154.23   
    83. D(H  14,C   3,C   1,C   0)     62.19 -0.000005   -0.10     62.09   
    84. D(H  15,C   4,C   3,C   5)    108.51 -0.000050    0.01    108.52   
    85. D(H  15,C   4,C   3,C   1)   -137.79  0.000057   -0.07   -137.85   
    86. D(C   5,C   4,C   3,H  14)   -103.54  0.000035   -0.03   -103.57   
    87. D(C   5,C   4,C   3,C   1)    113.70  0.000107   -0.08    113.63   
    88. D(H  16,C   4,C   3,H  14)    150.74  0.000014   -0.03    150.71   
    89. D(H  16,C   4,C   3,C   5)   -105.72 -0.000021   -0.00   -105.72   
    90. D(H  16,C   4,C   3,C   1)      7.99  0.000086   -0.08      7.91   
    91. D(H  15,C   4,C   3,H  14)      4.97 -0.000016   -0.02      4.94   
    92. D(H  17,C   5,C   4,H  16)      2.46 -0.000017   -0.00      2.46   
    93. D(H  17,C   5,C   4,H  15)    144.93  0.000019   -0.02    144.91   
    94. D(H  17,C   5,C   4,C   3)   -109.56 -0.000009   -0.01   -109.57   
    95. D(O   6,C   5,C   4,H  16)   -144.51 -0.000034    0.02   -144.49   
    96. D(O   6,C   5,C   4,C   3)    103.47 -0.000026    0.02    103.49   
    97. D(C   3,C   5,C   4,H  16)    112.02 -0.000008    0.00    112.03   
    98. D(C   3,C   5,C   4,H  15)   -105.51  0.000027   -0.01   -105.52   
    99. D(H  17,C   5,C   3,H  14)   -149.68  0.000057   -0.05   -149.73   
   100. D(H  17,C   5,C   3,C   4)    105.20  0.000016   -0.02    105.19   
   101. D(H  17,C   5,C   3,C   1)    -10.39  0.000016   -0.04    -10.43   
   102. D(O   6,C   5,C   4,H  15)     -2.04  0.000002    0.01     -2.04   
   103. D(O   6,C   5,C   3,H  14)     -7.83  0.000038   -0.03     -7.86   
   104. D(O   6,C   5,C   3,C   4)   -112.95 -0.000003    0.00   -112.94   
   105. D(O   6,C   5,C   3,C   1)    131.46 -0.000003   -0.02    131.44   
   106. D(C   4,C   5,C   3,H  14)    105.12  0.000041   -0.03    105.08   
   107. D(C   4,C   5,C   3,C   1)   -115.59 -0.000000   -0.02   -115.61   
   108. D(H  18,O   6,C   5,H  17)    -68.30 -0.000020    0.03    -68.26   
   109. D(H  18,O   6,C   5,C   4)     79.00  0.000000    0.00     79.00   
   110. D(H  18,O   6,C   5,C   3)    148.42 -0.000005    0.01    148.43   
    ----------------------------------------------------------------------------

         *************************************************************
         *                GEOMETRY OPTIMIZATION CYCLE   2            *
         *************************************************************
---------------------------------
CARTESIAN COORDINATES (ANGSTROEM)
---------------------------------
  C     -0.557539    1.852697   -1.190411
  C     -0.426967    0.346172   -1.237877
  N      0.928751    0.000767   -1.820094
  C     -0.601604   -0.311083    0.103595
  C     -0.029145   -1.636892    0.527215
  C      0.433340   -0.360041    1.171979
  O      0.003407    0.000753    2.427609
  H     -0.445308    2.308921   -2.177083
  H      0.168040    2.292443   -0.501366
  H     -1.551402    2.109428   -0.823033
  H     -1.140757   -0.079455   -1.949471
  H      1.677092    0.388341   -1.240509
  H      1.029425    0.388926   -2.759398
  H      1.059729   -1.011393   -1.873436
  H     -1.596773   -0.123906    0.494430
  H     -0.686335   -2.284868    1.092764
  H      0.680201   -2.174795   -0.095757
  H      1.451536   -0.044048    0.927540
  H      0.495592   -0.489076    3.094626

----------------------------
CARTESIAN COORDINATES (A.U.)
----------------------------
  NO LB      ZA    FRAG    MASS        X           Y           Z
   0 C     6.0000    0    12.011         -1.053596549778390          3.501089206504584         -2.249550912059005
   1 C     6.0000    0    12.011         -0.806851408454170          0.654170754588009         -2.339249204633471
   2 N     7.0000    0    14.007          1.755084521493639          0.001449289232203         -3.439479540983749
   3 C     6.0000    0    12.011         -1.136866518285730         -0.587860977264789          0.195766180066264
   4 C     6.0000    0    12.011         -0.055076148500150         -3.093277010104203          0.996291484860393
   5 C     6.0000    0    12.011          0.818893420264951         -0.680378971430976          2.214720179949552
   6 O     8.0000    0    15.999          0.006437871036576          0.001422809329746          4.587516117665588
   7 H     1.0000    0     1.008         -0.841511062359930          4.363227918242647         -4.114091320850370
   8 H     1.0000    0     1.008          0.317550147619919          4.332089333805814         -0.947444365666955
   9 H     1.0000    0     1.008         -2.931725028668346          3.986240595880238         -1.555306294240167
  10 H     1.0000    0     1.008         -2.155718385658267         -0.150148425356403         -3.683967069025238
  11 H     1.0000    0     1.008          3.169245454947710          0.733857710832866         -2.344222002144124
  12 H     1.0000    0     1.008          1.945330712945811          0.734963204586636         -5.214506598571983
  13 H     1.0000    0     1.008          2.002597139670665         -1.911256126528549         -3.540280912781244
  14 H     1.0000    0     1.008         -3.017464473206332         -0.234147903067464          0.934336900637624
  15 H     1.0000    0     1.008         -1.296985913435056         -4.317775419718970          2.065024941435073
  16 H     1.0000    0     1.008          1.285394075936046         -4.109767032386189         -0.180954909852172
  17 H     1.0000    0     1.008          2.743005489059938         -0.083238287254507          1.752797376552886
  18 H     1.0000    0     1.008          0.936532500417416         -0.924219313222991          5.847995205760654

--------------------------------
INTERNAL COORDINATES (ANGSTROEM)
--------------------------------
 C      0   0   0   0.000000     0.000     0.000
 C      1   0   0   1.512917     0.000     0.000
 N      2   1   0   1.515339   108.436     0.000
 C      2   1   3   1.504005   113.400   122.872
 C      4   2   1   1.504969   126.290   205.770
 C      4   2   1   1.488271   125.024   282.111
 O      6   4   2   1.375362   115.427   131.444
 H      1   2   3   1.092821   112.242    58.153
 H      1   2   3   1.092989   111.292   295.091
 H      1   2   3   1.090248   108.889   176.968
 H      2   1   3   1.094084   110.578   246.351
 H      3   2   1   1.022814   110.517    60.108
 H      3   2   1   1.021320   110.789   300.739
 H      3   2   1   1.021993   111.128   180.155
 H      4   2   1   1.085426   110.626    62.090
 H      5   4   2   1.082414   116.327   222.145
 H      5   4   2   1.086557   121.538     7.913
 H      6   4   2   1.093767   118.517   349.574
 H      7   6   4   0.962855   109.828   148.432

---------------------------
INTERNAL COORDINATES (A.U.)
---------------------------
 C      0   0   0   0.000000     0.000     0.000
 C      1   0   0   2.858999     0.000     0.000
 N      2   1   0   2.863576   108.436     0.000
 C      2   1   3   2.842157   113.400   122.872
 C      4   2   1   2.843980   126.290   205.770
 C      4   2   1   2.812425   125.024   282.111
 O      6   4   2   2.599057   115.427   131.444
 H      1   2   3   2.065133   112.242    58.153
 H      1   2   3   2.065451   111.292   295.091
 H      1   2   3   2.060270   108.889   176.968
 H      2   1   3   2.067520   110.578   246.351
 H      3   2   1   1.932838   110.517    60.108
 H      3   2   1   1.930015   110.789   300.739
 H      3   2   1   1.931286   111.128   180.155
 H      4   2   1   2.051158   110.626    62.090
 H      5   4   2   2.045465   116.327   222.145
 H      5   4   2   2.053295   121.538     7.913
 H      6   4   2   2.066920   118.517   349.574
 H      7   6   4   1.819532   109.828   148.432



           ************************************************************
           *        Program running with 8 parallel MPI-processes     *
           *              working on a common directory               *
           ************************************************************
           ************************************************************
           *              Shut down parallel processing               *
           ************************************************************


           ************************************************************
           *        Program running with 8 parallel MPI-processes     *
           *              working on a common directory               *
           ************************************************************

Diagonalization of the overlap matrix:
Smallest eigenvalue                        ... 1.200e-04
Time for diagonalization                   ...    0.908 sec
Threshold for overlap eigenvalues          ... 1.000e-08
Number of eigenvalues below threshold      ... 0
Time for construction of square roots      ...    0.065 sec
Total time needed                          ...    0.973 sec

-------------------
DFT GRID GENERATION
-------------------

General Integration Accuracy     IntAcc      ...  4.340
Radial Grid Type                 RadialGrid  ... Gauss-Chebyshev
Angular Grid (max. acc.)         AngularGrid ... Lebedev-194
Angular grid pruning method      GridPruning ... 3 (G Style)
Weight generation scheme         WeightScheme... Becke
Basis function cutoff            BFCut       ...    1.0000e-11
Integration weight cutoff        WCut        ...    1.0000e-14
Grids for H and He will be reduced by one unit

# of grid points (after initial pruning)     ...  41422 (   0.0 sec)
# of grid points (after weights+screening)   ...  37663 (   0.4 sec)
nearest neighbour list constructed           ...    0.0 sec
Grid point re-assignment to atoms done       ...    0.0 sec
Grid point division into batches done        ...    0.1 sec
Reduced shell lists constructed in    0.2 sec

Total number of grid points                  ...    37663
Total number of batches                      ...      600
Average number of points per batch           ...       62
Average number of grid points per atom       ...     1982
Average number of shells per batch           ...    99.74 (79.79%)
Average number of basis functions per batch  ...   236.84 (81.95%)
Average number of large shells per batch     ...    81.43 (81.65%)
Average number of large basis fcns per batch ...   190.99 (80.64%)
Maximum spatial batch extension              ...   2.17,  2.62,  2.37 au
Average spatial batch extension              ...   0.14,  0.14,  0.14 au

Time for grid setup =    1.161 sec

--------------
SCF ITERATIONS
--------------
ITER       Energy         Delta-E        Max-DP      RMS-DP      [F,P]     Damp
               ***  Starting incremental Fock matrix formation  ***
                      *** Initiating the SOSCF procedure ***
                      *** Re-Reading the Fockian *** 
                      *** Removing any level shift *** 
ITER      Energy       Delta-E        Grad      Rot      Max-DP    RMS-DP
  0   -327.19827676 -327.1982767568  0.000255  0.000255  0.000966  0.000016
               *** Restarting incremental Fock matrix formation ***
  1   -327.19828487  -0.0000081155  0.000083  0.000109  0.000268  0.000006
  2   -327.19828555  -0.0000006827  0.000025  0.000045  0.000163  0.000003
  3   -327.19828556  -0.0000000028  0.000023  0.000021  0.000112  0.000002
  4   -327.19828563  -0.0000000704  0.000003  0.000006  0.000031  0.000000
  5   -327.19828563   0.0000000009  0.000004  0.000004  0.000019  0.000000
                  ***Gradient check signals convergence***
              ***Rediagonalizing the Fockian in SOSCF/NRSCF***

               *****************************************************
               *                     SUCCESS                       *
               *           SCF CONVERGED AFTER   6 CYCLES          *
               *****************************************************

Setting up the final grid:

General Integration Accuracy     IntAcc      ...  5.010
Radial Grid Type                 RadialGrid  ... Gauss-Chebyshev
Angular Grid (max. acc.)         AngularGrid ... Lebedev-434
Angular grid pruning method      GridPruning ... 3 (G Style)
Weight generation scheme         WeightScheme... Becke
Basis function cutoff            BFCut       ...    1.0000e-11
Integration weight cutoff        WCut        ...    1.0000e-14
Grids for H and He will be reduced by one unit

# of grid points (after initial pruning)     ... 155226 (   0.0 sec)
# of grid points (after weights+screening)   ... 139316 (   5.4 sec)
nearest neighbour list constructed           ...    0.0 sec
Grid point re-assignment to atoms done       ...    0.0 sec
Grid point division into batches done        ...    0.9 sec
Reduced shell lists constructed in    1.1 sec

Total number of grid points                  ...   139316
Total number of batches                      ...     2186
Average number of points per batch           ...       63
Average number of grid points per atom       ...     7332
Average number of shells per batch           ...    98.86 (79.09%)
Average number of basis functions per batch  ...   235.24 (81.40%)
Average number of large shells per batch     ...    80.41 (81.34%)
Average number of large basis fcns per batch ...   189.07 (80.37%)
Maximum spatial batch extension              ...   1.90,  2.01,  2.15 au
Average spatial batch extension              ...   0.10,  0.09,  0.09 au

Final grid set up in    8.6 sec
Final integration                            ... done (   1.4 sec)
Change in XC energy                          ...     0.000205235
Integrated number of electrons               ...    56.000111195
Previous integrated no of electrons          ...    55.999454176
Total Energy       :         -327.19808039 Eh           -8903.51241 eV
  Last Energy change         ...   -1.8432e-09  Tolerance :   1.0000e-08
  Last MAX-Density change    ...    5.4101e-06  Tolerance :   1.0000e-07
             **** THE GBW FILE WAS UPDATED (5319_+.gbw) ****
             **** DENSITY FILE WAS UPDATED (5319_+.scfp.tmp) ****
             **** ENERGY FILE WAS UPDATED (5319_+.en.tmp) ****
Total SCF time: 0 days 0 hours 1 min 18 sec 
           ************************************************************
           *              Shut down parallel processing               *
           ************************************************************

-------------------------   --------------------
FINAL SINGLE POINT ENERGY      -327.198080394580
-------------------------   --------------------



           ************************************************************
           *        Program running with 8 parallel MPI-processes     *
           *              working on a common directory               *
           ************************************************************
------------------------------------------------------------------------------
                         ORCA SCF GRADIENT CALCULATION
------------------------------------------------------------------------------

Gradient of the Kohn-Sham DFT energy:
Kohn-Sham wavefunction type      ... RKS
Hartree-Fock exchange scaling    ...    0.250
Number of operators              ...    1
Number of atoms                  ...   19
Basis set dimensions             ...  289
Integral neglect threshold       ... 2.5e-11
Integral primitive cutoff        ... 2.5e-12

Nuclear repulsion gradient       ... done
One Electron Gradient            ... done
Pre-screening matrix             ... done
Starting the two electron gradient:
Two electron gradient done
Exchange-correlation gradient    ... done

------------------
CARTESIAN GRADIENT
------------------

   1   C   :    0.000018911    0.000052620   -0.000097197
   2   C   :    0.000034689    0.000110220    0.000124397
   3   N   :   -0.000044187    0.000006225    0.000099644
   4   C   :    0.000148879   -0.000128918   -0.000002717
   5   C   :   -0.000039809   -0.000107574   -0.000041807
   6   C   :    0.000008942    0.000066844   -0.000034804
   7   O   :   -0.000060044    0.000002388    0.000019690
   8   H   :   -0.000005252   -0.000025520    0.000005291
   9   H   :   -0.000012536   -0.000036419    0.000047000
  10   H   :    0.000006682   -0.000002401    0.000018623
  11   H   :   -0.000045933   -0.000003428    0.000011999
  12   H   :    0.000082133    0.000020403   -0.000093343
  13   H   :   -0.000025282   -0.000021552   -0.000027175
  14   H   :   -0.000017600   -0.000011950    0.000013443
  15   H   :   -0.000029148    0.000017201   -0.000045279
  16   H   :   -0.000016087    0.000021378    0.000011064
  17   H   :    0.000016580    0.000032466    0.000009171
  18   H   :   -0.000024450    0.000024221   -0.000008036
  19   H   :    0.000003512   -0.000016204   -0.000009963

Norm of the cartesian gradient     ...    0.000386340
RMS gradient                       ...    0.000051172
MAX gradient                       ...    0.000148879

-------
TIMINGS
-------

Total SCF gradient time            ...       52.940 sec

One electron gradient       ....       0.250 sec  (  0.5%)
Prescreening matrices       ....       0.655 sec  (  1.2%)
Two electron gradient       ....      40.257 sec  ( 76.0%)
XC gradient                 ....       5.660 sec  ( 10.7%)
           ************************************************************
           *              Shut down parallel processing               *
           ************************************************************
------------------------------------------------------------------------------
                         ORCA GEOMETRY RELAXATION STEP
------------------------------------------------------------------------------

Reading the OPT-File                    .... done
Getting information on internals        .... done
Copying old internal coords+grads       .... done
Making the new internal coordinates     .... (new redundants).... done
Validating the new internal coordinates .... (new redundants).... done
Calculating the B-matrix                .... done
Calculating the G,G- and P matrices     .... done
Transforming gradient to internals      .... done
Projecting the internal gradient        .... done
Number of atoms                         ....  19
Number of internal coordinates          .... 110
Current Energy                          ....  -327.198080395 Eh
Current gradient norm                   ....     0.000386340 Eh/bohr
Maximum allowed component of the step   ....  0.300
Current trust radius                    ....  0.300
Updating the Hessian (BFGS)             .... done
Forming the augmented Hessian           .... done
Diagonalizing the augmented Hessian     .... done
Last element of RFO vector              ....  0.999750980
Lowest eigenvalues of augmented Hessian:
 -0.000003920  0.006606253  0.012315654  0.012617969  0.028009456
Length of the computed step             ....  0.022320988
The final length of the internal step   ....  0.022320988
Converting the step to cartesian space:
 Initial RMS(Int)=    0.0021282227
Transforming coordinates:
 Iter   0:  RMS(Cart)=    0.0054761787 RMS(Int)=    0.0021275933
 Iter   1:  RMS(Cart)=    0.0000117659 RMS(Int)=    0.0000068155
 Iter   2:  RMS(Cart)=    0.0000000626 RMS(Int)=    0.0000000286
done
Storing new coordinates                 .... done

                                .--------------------.
          ----------------------|Geometry convergence|---------------------
          Item                value                 Tolerance   Converged
          -----------------------------------------------------------------
          Energy change      -0.00000338            0.00000100      NO
          RMS gradient        0.00003113            0.00003000      NO
          MAX gradient        0.00016272            0.00010000      NO
          RMS step            0.00212822            0.00060000      NO
          MAX step            0.00664411            0.00100000      NO
          ....................................................
          Max(Bonds)      0.0003      Max(Angles)    0.08
          Max(Dihed)        0.38      Max(Improp)    0.00
          -----------------------------------------------------------------

The optimization has not yet converged - more geometry cycles are needed


    ---------------------------------------------------------------------------
                         Redundant Internal Coordinates
                            (Angstroem and degrees)

        Definition                    Value    dE/dq     Step     New-Value
    ----------------------------------------------------------------------------
     1. B(C   1,C   0)                1.5129 -0.000017  0.0001    1.5130   
     2. B(N   2,C   1)                1.5153  0.000001 -0.0001    1.5153   
     3. B(C   3,C   1)                1.5040 -0.000053  0.0001    1.5041   
     4. B(C   4,C   3)                1.5050  0.000008  0.0001    1.5050   
     5. B(C   5,C   4)                1.5033  0.000010 -0.0002    1.5031   
     6. B(C   5,C   3)                1.4883 -0.000066  0.0003    1.4886   
     7. B(O   6,C   5)                1.3754  0.000025 -0.0000    1.3753   
     8. B(H   7,C   0)                1.0928 -0.000015  0.0001    1.0930   
     9. B(H   8,C   0)                1.0930  0.000005 -0.0000    1.0930   
    10. B(H   9,C   0)                1.0902 -0.000000 -0.0000    1.0902   
    11. B(H  10,C   1)                1.0941  0.000024 -0.0001    1.0939   
    12. B(H  11,N   2)                1.0228  0.000015  0.0000    1.0228   
    13. B(H  12,N   2)                1.0213  0.000014  0.0001    1.0214   
    14. B(H  13,N   2)                1.0220  0.000010 -0.0000    1.0220   
    15. B(H  14,C   3)                1.0854  0.000013 -0.0001    1.0853   
    16. B(H  15,C   4)                1.0824  0.000003 -0.0001    1.0824   
    17. B(H  16,C   4)                1.0866 -0.000011  0.0001    1.0866   
    18. B(H  17,C   5)                1.0938 -0.000014  0.0001    1.0938   
    19. B(H  18,O   6)                0.9629  0.000002  0.0000    0.9629   
    20. A(C   1,C   0,H   9)          108.89  0.000001    0.00    108.89   
    21. A(H   8,C   0,H   9)          107.34  0.000003    0.01    107.35   
    22. A(C   1,C   0,H   8)          111.29 -0.000051    0.03    111.32   
    23. A(H   7,C   0,H   9)          107.43  0.000015   -0.01    107.42   
    24. A(C   1,C   0,H   7)          112.24 -0.000013    0.00    112.24   
    25. A(H   7,C   0,H   8)          109.45  0.000047   -0.03    109.42   
    26. A(N   2,C   1,C   3)          110.30  0.000031   -0.06    110.24   
    27. A(N   2,C   1,H  10)          104.19 -0.000013    0.05    104.24   
    28. A(C   3,C   1,H  10)          109.53 -0.000053    0.07    109.61   
    29. A(C   0,C   1,C   3)          113.40  0.000039   -0.05    113.35   
    30. A(C   0,C   1,N   2)          108.44 -0.000017   -0.03    108.40   
    31. A(C   0,C   1,H  10)          110.58  0.000009    0.02    110.59   
    32. A(H  11,N   2,H  13)          108.13 -0.000027   -0.01    108.12   
    33. A(C   1,N   2,H  13)          111.13 -0.000051    0.02    111.15   
    34. A(H  11,N   2,H  12)          107.76 -0.000054    0.02    107.78   
    35. A(C   1,N   2,H  12)          110.79 -0.000045    0.03    110.82   
    36. A(C   1,N   2,H  11)          110.52  0.000163   -0.08    110.43   
    37. A(H  12,N   2,H  13)          108.41  0.000013    0.02    108.43   
    38. A(C   5,C   3,H  14)          112.63  0.000001    0.02    112.65   
    39. A(C   4,C   3,H  14)          113.54  0.000009   -0.02    113.52   
    40. A(C   1,C   3,H  14)          110.63 -0.000041    0.04    110.67   
    41. A(C   4,C   3,C   5)           60.29  0.000016   -0.02     60.27   
    42. A(C   1,C   3,C   5)          125.02  0.000029   -0.06    124.96   
    43. A(C   1,C   3,C   4)          126.29  0.000016   -0.00    126.29   
    44. A(C   5,C   4,H  15)          118.11 -0.000011    0.01    118.12   
    45. A(C   3,C   4,H  15)          116.33 -0.000006    0.01    116.33   
    46. A(C   3,C   4,C   5)           59.30 -0.000030    0.02     59.32   
    47. A(H  15,C   4,H  16)          113.55  0.000014   -0.02    113.53   
    48. A(C   5,C   4,H  16)          117.75  0.000006    0.01    117.75   
    49. A(C   3,C   4,H  16)          121.54  0.000007   -0.00    121.53   
    50. A(C   4,C   5,O   6)          121.21 -0.000029    0.02    121.23   
    51. A(O   6,C   5,H  17)          114.79  0.000025   -0.01    114.78   
    52. A(C   3,C   5,O   6)          115.43 -0.000028    0.02    115.45   
    53. A(C   4,C   5,H  17)          115.84  0.000008   -0.02    115.82   
    54. A(C   3,C   5,H  17)          118.52 -0.000002    0.01    118.52   
    55. A(C   3,C   5,C   4)           60.40  0.000015    0.00     60.40   
    56. A(C   5,O   6,H  18)          109.83 -0.000027    0.01    109.84   
    57. D(C   3,C   1,C   0,H   8)     57.96  0.000011   -0.00     57.96   
    58. D(N   2,C   1,C   0,H   8)    -64.91 -0.000043    0.13    -64.78   
    59. D(H  10,C   1,C   0,H   9)     63.32  0.000004    0.04     63.36   
    60. D(N   2,C   1,C   0,H   9)    176.97 -0.000017    0.09    177.06   
    61. D(H  10,C   1,C   0,H   7)    -55.50 -0.000007    0.06    -55.44   
    62. D(C   3,C   1,C   0,H   9)    -60.16  0.000037   -0.03    -60.19   
    63. D(N   2,C   1,C   0,H   7)     58.15 -0.000028    0.11     58.26   
    64. D(H  10,C   1,C   0,H   8)   -178.56 -0.000022    0.08   -178.48   
    65. D(C   3,C   1,C   0,H   7)   -178.97  0.000026   -0.02   -179.00   
    66. D(H  12,N   2,C   1,H  10)     58.54 -0.000025    0.28     58.82   
    67. D(H  12,N   2,C   1,C   3)    176.01 -0.000079    0.37    176.38   
    68. D(H  11,N   2,C   1,H  10)    177.91 -0.000016    0.27    178.18   
    69. D(H  11,N   2,C   1,C   0)     60.11 -0.000012    0.24     60.35   
    70. D(H  12,N   2,C   1,C   0)    -59.26 -0.000021    0.25    -59.01   
    71. D(H  13,N   2,C   1,H  10)    -62.04  0.000024    0.22    -61.82   
    72. D(H  13,N   2,C   1,C   3)     55.43 -0.000031    0.31     55.73   
    73. D(H  13,N   2,C   1,C   0)   -179.84  0.000028    0.19   -179.66   
    74. D(H  11,N   2,C   1,C   3)    -64.62 -0.000070    0.36    -64.26   
    75. D(H  14,C   3,C   1,H  10)    -61.96  0.000020   -0.29    -62.25   
    76. D(H  14,C   3,C   1,N   2)   -176.07  0.000049   -0.36   -176.43   
    77. D(C   5,C   3,C   1,H  10)    158.06  0.000041   -0.31    157.75   
    78. D(C   5,C   3,C   1,C   0)    -77.89  0.000041   -0.27    -78.15   
    79. D(C   4,C   3,C   1,H  10)     81.72 -0.000007   -0.25     81.47   
    80. D(C   4,C   3,C   1,N   2)    -32.39  0.000022   -0.32    -32.71   
    81. D(C   5,C   3,C   1,N   2)     43.95  0.000069   -0.38     43.57   
    82. D(C   4,C   3,C   1,C   0)   -154.23 -0.000006   -0.20   -154.43   
    83. D(H  14,C   3,C   1,C   0)     62.09  0.000020   -0.24     61.85   
    84. D(H  15,C   4,C   3,C   5)    108.52 -0.000021    0.01    108.53   
    85. D(H  15,C   4,C   3,C   1)   -137.85  0.000020   -0.07   -137.93   
    86. D(C   5,C   4,C   3,H  14)   -103.57 -0.000001   -0.03   -103.60   
    87. D(C   5,C   4,C   3,C   1)    113.63  0.000041   -0.09    113.54   
    88. D(H  16,C   4,C   3,H  14)    150.71  0.000008   -0.05    150.66   
    89. D(H  16,C   4,C   3,C   5)   -105.72  0.000009   -0.02   -105.74   
    90. D(H  16,C   4,C   3,C   1)      7.91  0.000050   -0.11      7.80   
    91. D(H  15,C   4,C   3,H  14)      4.94 -0.000022   -0.01      4.93   
    92. D(H  17,C   5,C   4,H  16)      2.46 -0.000003   -0.02      2.43   
    93. D(H  17,C   5,C   4,H  15)    144.91  0.000015   -0.03    144.88   
    94. D(H  17,C   5,C   4,C   3)   -109.57  0.000001   -0.02   -109.59   
    95. D(O   6,C   5,C   4,H  16)   -144.49 -0.000020    0.01   -144.47   
    96. D(O   6,C   5,C   4,C   3)    103.49 -0.000015    0.02    103.50   
    97. D(C   3,C   5,C   4,H  16)    112.03 -0.000005   -0.00    112.02   
    98. D(C   3,C   5,C   4,H  15)   -105.52  0.000014   -0.01   -105.53   
    99. D(H  17,C   5,C   3,H  14)   -149.73  0.000032   -0.07   -149.80   
   100. D(H  17,C   5,C   3,C   4)    105.19  0.000017   -0.03    105.15   
   101. D(H  17,C   5,C   3,C   1)    -10.43 -0.000003   -0.04    -10.47   
   102. D(O   6,C   5,C   4,H  15)     -2.04 -0.000001    0.01     -2.03   
   103. D(O   6,C   5,C   3,H  14)     -7.86  0.000033   -0.05     -7.91   
   104. D(O   6,C   5,C   3,C   4)   -112.94  0.000018   -0.01   -112.96   
   105. D(O   6,C   5,C   3,C   1)    131.44 -0.000001   -0.02    131.43   
   106. D(C   4,C   5,C   3,H  14)    105.08  0.000015   -0.04    105.05   
   107. D(C   4,C   5,C   3,C   1)   -115.61 -0.000020   -0.01   -115.62   
   108. D(H  18,O   6,C   5,H  17)    -68.26 -0.000011    0.05    -68.22   
   109. D(H  18,O   6,C   5,C   4)     79.00  0.000001    0.01     79.01   
   110. D(H  18,O   6,C   5,C   3)    148.43 -0.000003    0.02    148.45   
    ----------------------------------------------------------------------------

         *************************************************************
         *                GEOMETRY OPTIMIZATION CYCLE   3            *
         *************************************************************
---------------------------------
CARTESIAN COORDINATES (ANGSTROEM)
---------------------------------
  C     -0.559922    1.851892   -1.191713
  C     -0.427505    0.345451   -1.238700
  N      0.930418    0.002357   -1.816972
  C     -0.602505   -0.310624    0.103416
  C     -0.032472   -1.637422    0.527403
  C      0.434828   -0.361424    1.169844
  O      0.009103    0.001915    2.426124
  H     -0.447157    2.308108   -2.178483
  H      0.164415    2.293159   -0.502394
  H     -1.554535    2.107531   -0.825712
  H     -1.139147   -0.081331   -1.951536
  H      1.675485    0.388239   -1.232002
  H      1.035268    0.394156   -2.754380
  H      1.062321   -1.009525   -1.873112
  H     -1.596442   -0.120982    0.495861
  H     -0.690059   -2.283205    1.094896
  H      0.673970   -2.178016   -0.096688
  H      1.453601   -0.048999    0.922886
  H      0.501615   -0.488390    3.092585

----------------------------
CARTESIAN COORDINATES (A.U.)
----------------------------
  NO LB      ZA    FRAG    MASS        X           Y           Z
   0 C     6.0000    0    12.011         -1.058100086409558          3.499568369877118         -2.252011684303591
   1 C     6.0000    0    12.011         -0.807867070484098          0.652808239971606         -2.340803225736924
   2 N     7.0000    0    14.007          1.758235543895127          0.004453427958624         -3.433579805102175
   3 C     6.0000    0    12.011         -1.138568853271179         -0.586994385200113          0.195427972275247
   4 C     6.0000    0    12.011         -0.061363510495474         -3.094278604998465          0.996647966985532
   5 C     6.0000    0    12.011          0.821705668493119         -0.682992329263592          2.210683891390247
   6 O     8.0000    0    15.999          0.017202819448206          0.003619346336703          4.584710330416362
   7 H     1.0000    0     1.008         -0.845004237937809          4.361691808706913         -4.116736990283320
   8 H     1.0000    0     1.008          0.310698822946266          4.333441651584393         -0.949386240873614
   9 H     1.0000    0     1.008         -2.937644634649428          3.982656549305317         -1.560369407071222
  10 H     1.0000    0     1.008         -2.152675684984521         -0.153693235464205         -3.687869172674344
  11 H     1.0000    0     1.008          3.166207328420815          0.733665284500248         -2.328146403878984
  12 H     1.0000    0     1.008          1.956372464124884          0.744846992479006         -5.205024060532683
  13 H     1.0000    0     1.008          2.007494938349491         -1.907725315689091         -3.539669507359291
  14 H     1.0000    0     1.008         -3.016837312023653         -0.228623213202488          0.937040842233991
  15 H     1.0000    0     1.008         -1.304022013548084         -4.314631336062353          2.069054515421273
  16 H     1.0000    0     1.008          1.273619074235393         -4.115854062394504         -0.182714688275888
  17 H     1.0000    0     1.008          2.746907175936292         -0.092594883781574          1.744002549589226
  18 H     1.0000    0     1.008          0.947915413000513         -0.922922947995841          5.844138373899713

--------------------------------
INTERNAL COORDINATES (ANGSTROEM)
--------------------------------
 C      0   0   0   0.000000     0.000     0.000
 C      1   0   0   1.512979     0.000     0.000
 N      2   1   0   1.515278   108.405     0.000
 C      2   1   3   1.504106   113.354   122.745
 C      4   2   1   1.505023   126.288   205.567
 C      4   2   1   1.488592   124.963   281.846
 O      6   4   2   1.375317   115.447   131.426
 H      1   2   3   1.092961   112.243    58.260
 H      1   2   3   1.092951   111.320   295.218
 H      1   2   3   1.090212   108.890   177.061
 H      2   1   3   1.093944   110.594   246.300
 H      3   2   1   1.022849   110.433    60.350
 H      3   2   1   1.021388   110.817   300.990
 H      3   2   1   1.021985   111.150   180.344
 H      4   2   1   1.085305   110.670    61.847
 H      5   4   2   1.082360   116.333   222.072
 H      5   4   2   1.086643   121.535     7.804
 H      6   4   2   1.093844   118.525   349.534
 H      7   6   4   0.962879   109.840   148.452

---------------------------
INTERNAL COORDINATES (A.U.)
---------------------------
 C      0   0   0   0.000000     0.000     0.000
 C      1   0   0   2.859116     0.000     0.000
 N      2   1   0   2.863461   108.405     0.000
 C      2   1   3   2.842348   113.354   122.745
 C      4   2   1   2.844081   126.288   205.567
 C      4   2   1   2.813032   124.963   281.846
 O      6   4   2   2.598973   115.447   131.426
 H      1   2   3   2.065398   112.243    58.260
 H      1   2   3   2.065378   111.320   295.218
 H      1   2   3   2.060202   108.890   177.061
 H      2   1   3   2.067255   110.594   246.300
 H      3   2   1   1.932904   110.433    60.350
 H      3   2   1   1.930144   110.817   300.990
 H      3   2   1   1.931272   111.150   180.344
 H      4   2   1   2.050930   110.670    61.847
 H      5   4   2   2.045365   116.333   222.072
 H      5   4   2   2.053458   121.535     7.804
 H      6   4   2   2.067066   118.525   349.534
 H      7   6   4   1.819578   109.840   148.452



           ************************************************************
           *        Program running with 8 parallel MPI-processes     *
           *              working on a common directory               *
           ************************************************************
           ************************************************************
           *              Shut down parallel processing               *
           ************************************************************


           ************************************************************
           *        Program running with 8 parallel MPI-processes     *
           *              working on a common directory               *
           ************************************************************

Diagonalization of the overlap matrix:
Smallest eigenvalue                        ... 1.200e-04
Time for diagonalization                   ...    0.322 sec
Threshold for overlap eigenvalues          ... 1.000e-08
Number of eigenvalues below threshold      ... 0
Time for construction of square roots      ...    0.037 sec
Total time needed                          ...    0.359 sec

-------------------
DFT GRID GENERATION
-------------------

General Integration Accuracy     IntAcc      ...  4.340
Radial Grid Type                 RadialGrid  ... Gauss-Chebyshev
Angular Grid (max. acc.)         AngularGrid ... Lebedev-194
Angular grid pruning method      GridPruning ... 3 (G Style)
Weight generation scheme         WeightScheme... Becke
Basis function cutoff            BFCut       ...    1.0000e-11
Integration weight cutoff        WCut        ...    1.0000e-14
Grids for H and He will be reduced by one unit

# of grid points (after initial pruning)     ...  41422 (   0.0 sec)
# of grid points (after weights+screening)   ...  37664 (   0.3 sec)
nearest neighbour list constructed           ...    0.0 sec
Grid point re-assignment to atoms done       ...    0.0 sec
Grid point division into batches done        ...    0.1 sec
Reduced shell lists constructed in    0.3 sec

Total number of grid points                  ...    37664
Total number of batches                      ...      600
Average number of points per batch           ...       62
Average number of grid points per atom       ...     1982
Average number of shells per batch           ...    99.74 (79.79%)
Average number of basis functions per batch  ...   236.95 (81.99%)
Average number of large shells per batch     ...    81.51 (81.73%)
Average number of large basis fcns per batch ...   191.43 (80.79%)
Maximum spatial batch extension              ...   2.01,  2.71,  2.37 au
Average spatial batch extension              ...   0.14,  0.15,  0.14 au

Time for grid setup =    1.175 sec

--------------
SCF ITERATIONS
--------------
ITER       Energy         Delta-E        Max-DP      RMS-DP      [F,P]     Damp
               ***  Starting incremental Fock matrix formation  ***
                      *** Initiating the SOSCF procedure ***
                      *** Re-Reading the Fockian *** 
                      *** Removing any level shift *** 
ITER      Energy       Delta-E        Grad      Rot      Max-DP    RMS-DP
  0   -327.19826291 -327.1982629096  0.000373  0.000373  0.001787  0.000027
               *** Restarting incremental Fock matrix formation ***
  1   -327.19828578  -0.0000228749  0.000123  0.000162  0.000533  0.000011
  2   -327.19828776  -0.0000019722  0.000034  0.000070  0.000175  0.000004
  3   -327.19828774   0.0000000214  0.000037  0.000033  0.000135  0.000002
  4   -327.19828791  -0.0000001723  0.000003  0.000008  0.000041  0.000001
  5   -327.19828791   0.0000000007  0.000005  0.000005  0.000026  0.000000
                  ***Gradient check signals convergence***
              ***Rediagonalizing the Fockian in SOSCF/NRSCF***

               *****************************************************
               *                     SUCCESS                       *
               *           SCF CONVERGED AFTER   6 CYCLES          *
               *****************************************************

Setting up the final grid:

General Integration Accuracy     IntAcc      ...  5.010
Radial Grid Type                 RadialGrid  ... Gauss-Chebyshev
Angular Grid (max. acc.)         AngularGrid ... Lebedev-434
Angular grid pruning method      GridPruning ... 3 (G Style)
Weight generation scheme         WeightScheme... Becke
Basis function cutoff            BFCut       ...    1.0000e-11
Integration weight cutoff        WCut        ...    1.0000e-14
Grids for H and He will be reduced by one unit

# of grid points (after initial pruning)     ... 155226 (   0.0 sec)
# of grid points (after weights+screening)   ... 139316 (   5.0 sec)
nearest neighbour list constructed           ...    0.0 sec
Grid point re-assignment to atoms done       ...    0.1 sec
Grid point division into batches done        ...    1.5 sec
Reduced shell lists constructed in    2.0 sec

Total number of grid points                  ...   139316
Total number of batches                      ...     2187
Average number of points per batch           ...       63
Average number of grid points per atom       ...     7332
Average number of shells per batch           ...    98.96 (79.17%)
Average number of basis functions per batch  ...   235.43 (81.46%)
Average number of large shells per batch     ...    80.42 (81.26%)
Average number of large basis fcns per batch ...   189.15 (80.34%)
Maximum spatial batch extension              ...   1.74,  2.18,  2.52 au
Average spatial batch extension              ...   0.09,  0.09,  0.09 au

Final grid set up in    8.3 sec
Final integration                            ... done (   1.6 sec)
Change in XC energy                          ...     0.000205139
Integrated number of electrons               ...    56.000118603
Previous integrated no of electrons          ...    55.999462007
Total Energy       :         -327.19808277 Eh           -8903.51248 eV
[...]
     18      -0.015614   0.000874  -0.001740  -0.000330  -0.000514  -0.000039
     19       0.001492   0.000627   0.000478   0.000171   0.000252   0.000008
     20      -0.030497  -0.000740   0.001285   0.000618   0.001069   0.000096
     21      -0.069533   0.037864   0.002641  -0.054563   0.034062  -0.020448
     22       0.075593  -0.007719  -0.029208  -0.219393   0.137042  -0.063759
     23       0.029768  -0.005573  -0.012171   0.496525  -0.308639   0.144778
     24       0.040747  -0.006876  -0.033378  -0.369445   0.222762   0.054435
     25      -0.025684   0.021567   0.007150  -0.218604   0.133018   0.029499
     26      -0.022705  -0.006091   0.021908  -0.354065   0.214230   0.049891
     27      -0.023991   0.005199   0.017921   0.323079  -0.203478   0.067034
     28       0.039700  -0.023645   0.021476  -0.073696   0.046451  -0.014332
     29      -0.092844   0.032807   0.031802  -0.117987   0.075294  -0.030421
     30      -0.059693  -0.056018  -0.020236   0.051184  -0.012235  -0.636759
     31      -0.010094   0.009069  -0.005832   0.031819  -0.007931  -0.381399
     32       0.109925   0.020288   0.011771   0.050599  -0.015352  -0.634640
     33       0.009504   0.221428   0.093708   0.001219   0.010892   0.012225
     34      -0.040500   0.056664  -0.628254   0.004601   0.005343   0.011375
     35       0.013864  -0.364650   0.275093  -0.003696  -0.000946   0.018008
     36       0.077686   0.210207  -0.381651  -0.000393   0.003140   0.003629
     37      -0.064000   0.621942   0.027487   0.002414  -0.000393  -0.002362
     38      -0.028590   0.279566  -0.062535   0.003305   0.000289   0.002098
     39       0.013803  -0.050972   0.435928  -0.002716  -0.001271   0.004324
     40       0.013542  -0.064593   0.052196   0.001386   0.003046   0.001799
     41       0.005088   0.533379   0.408685   0.000529  -0.000221  -0.001530
     42       0.066070   0.002446  -0.004770  -0.014321  -0.005958   0.020253
     43      -0.159324   0.007655   0.011288   0.003809   0.002974  -0.005991
     44       0.334265   0.002669  -0.019117   0.008692   0.007863  -0.006705
     45      -0.174272  -0.014980  -0.013613   0.003401   0.006376   0.000516
     46       0.300743   0.032857   0.021377   0.003192   0.004735  -0.001430
     47       0.284619   0.021684   0.009665  -0.000943  -0.000872   0.000531
     48       0.159765   0.011169   0.014579  -0.025973  -0.047009  -0.002208
     49       0.341952   0.034729   0.023308   0.018634   0.033488   0.001117
     50      -0.250129  -0.027177  -0.009148   0.020774   0.038333   0.002875
     51      -0.025666  -0.001560   0.004942   0.473252   0.787219   0.022916
     52      -0.103877  -0.005630  -0.004217   0.142336   0.236522   0.006905
     53      -0.453660   0.016394  -0.019681  -0.113084  -0.187621  -0.005512
     54       0.116768   0.000835   0.002180   0.000914   0.001465   0.000173
     55      -0.113538  -0.001391  -0.003009   0.000156   0.000331  -0.000364
     56      -0.203143  -0.002325  -0.003089   0.002741   0.004755   0.000532
                 48         49         50         51         52         53    
      0       0.002598   0.026962  -0.086832   0.006916  -0.000222   0.000414
      1       0.000054  -0.000326  -0.001458  -0.000396  -0.000044   0.000170
      2       0.012141   0.087228   0.027344  -0.001971   0.000105   0.000048
      3       0.001411   0.009301  -0.004115   0.002380  -0.000292  -0.002748
      4       0.000814   0.005915  -0.001493   0.000482   0.000515   0.000028
      5       0.000835   0.010164  -0.002263   0.001700   0.000090   0.000332
      6      -0.000073   0.000029   0.000691  -0.000674   0.000156  -0.039429
      7      -0.000329  -0.000210  -0.000736  -0.000038   0.000308   0.008135
      8      -0.000226  -0.000008  -0.000031   0.000581   0.000077   0.007010
      9      -0.004417   0.000085   0.006656   0.077490  -0.006235   0.000388
     10       0.002485  -0.000011  -0.001330  -0.014654   0.001410  -0.000049
     11      -0.000655   0.000180  -0.002535  -0.030448   0.001626  -0.000308
     12       0.023661  -0.003243  -0.000395  -0.005124  -0.070131   0.000218
     13      -0.061013   0.008466   0.000630  -0.002845  -0.026455  -0.000119
     14      -0.021867   0.002866   0.000299   0.004750   0.060977   0.000061
     15       0.007274  -0.001047  -0.000330   0.000791  -0.002186   0.000396
     16       0.003308  -0.000312  -0.000126  -0.000294  -0.000118  -0.000118
     17       0.000749  -0.000414  -0.000010  -0.001422   0.001379   0.000043
     18      -0.000034  -0.000010   0.000009  -0.000013   0.000173  -0.000062
     19       0.000058   0.000001  -0.000003  -0.000068  -0.000102   0.000053
     20       0.000084   0.000007   0.000014   0.000016  -0.000143   0.000005
     21       0.010737   0.078974   0.011842  -0.001224   0.000164  -0.000315
     22       0.038755   0.289000   0.105622  -0.004430   0.001376   0.000845
     23      -0.085038  -0.627280  -0.232240   0.012336  -0.002122  -0.000464
     24      -0.059810  -0.454053   0.199241  -0.013918   0.000373  -0.002350
     25      -0.036294  -0.276889   0.128684  -0.009208   0.000210  -0.000364
     26      -0.055155  -0.418775   0.209468  -0.014765   0.000456  -0.001523
     27       0.017299   0.052217   0.824625  -0.069417   0.002681   0.002470
     28      -0.003951  -0.011247  -0.211630   0.018756  -0.000936  -0.002351
     29      -0.003336   0.003124  -0.303233   0.025264  -0.000954  -0.000997
     30      -0.012966  -0.107190   0.033514  -0.017555   0.000242   0.011531
     31      -0.009187  -0.068836   0.021929  -0.009279  -0.000137   0.003501
     32      -0.011650  -0.108824   0.031895  -0.019737   0.000286   0.005400
     33      -0.000015  -0.004166   0.000655  -0.000758  -0.001159   0.464277
     34      -0.000680   0.002678  -0.002569  -0.000471   0.000088   0.251421
     35       0.001164   0.001620  -0.000721   0.000279  -0.001227   0.385818
     36      -0.000538   0.003775   0.000190  -0.001011   0.000483   0.036153
     37       0.001830  -0.002343  -0.001263   0.000038  -0.000998   0.196524
     38      -0.001835  -0.003047  -0.001419   0.001190   0.000651  -0.454634
     39      -0.002158   0.000216   0.000855   0.000272   0.001474   0.059292
     40       0.005344   0.000963   0.003516   0.000255  -0.003733  -0.565146
     41       0.005521  -0.002497  -0.000172   0.000348  -0.003173  -0.030900
     42       0.029244   0.002393  -0.075499  -0.904718   0.072657  -0.001064
     43      -0.003793  -0.000410   0.014870   0.169993  -0.015997   0.001117
     44      -0.013744  -0.000269   0.029459   0.360987  -0.028500  -0.001355
     45       0.290196  -0.041182  -0.000829   0.053702   0.538889  -0.000144
     46       0.258887  -0.037566  -0.000472   0.050843   0.525578   0.000345
     47      -0.250341   0.035440   0.000823  -0.043362  -0.461811  -0.000214
     48      -0.569921   0.079026   0.005763   0.001053   0.291173  -0.001856
     49       0.419064  -0.058223  -0.004115  -0.000008  -0.225607   0.001371
     50       0.507232  -0.069543  -0.005127  -0.006436  -0.259809  -0.000527
     51      -0.064104   0.007576   0.002935  -0.018310   0.030698  -0.003404
     52      -0.019311   0.002433   0.000789  -0.003453   0.012391   0.000256
     53       0.016037  -0.002163  -0.000795   0.000881  -0.006026  -0.000449
     54      -0.000163   0.000177  -0.000009  -0.001027  -0.000474   0.000151
     55       0.000642  -0.000290  -0.000091  -0.000446  -0.000687  -0.000365
     56      -0.002218   0.000365   0.000174   0.001064  -0.001284   0.000243
                  54         55         56    
      0      -0.000376   0.000113   0.000004
      1      -0.000408   0.000378  -0.000010
      2      -0.000490  -0.000488  -0.000003
      3       0.001215   0.000407   0.000006
      4       0.000952  -0.000187  -0.000004
      5       0.001143   0.000334  -0.000066
      6       0.030149   0.006995   0.000025
      7       0.055700  -0.056023  -0.000022
      8       0.049689   0.057771   0.000107
      9      -0.000017   0.000234   0.000321
     10      -0.000194   0.000015  -0.000096
     11      -0.000200  -0.000210   0.000321
     12       0.000557  -0.000427  -0.000284
     13      -0.000119   0.000293  -0.000098
     14      -0.000383   0.000157   0.000184
     15      -0.000933  -0.000080  -0.001001
     16      -0.000280   0.000131   0.001189
     17       0.000291  -0.000093   0.000007
     18       0.000111   0.000049  -0.030828
     19       0.000079  -0.000085   0.030937
     20      -0.000028   0.000003  -0.044728
     21       0.000211  -0.000488  -0.000017
     22      -0.000163  -0.001193  -0.000073
     23       0.000967   0.003772   0.000088
     24       0.002921   0.000593   0.000035
     25       0.000264   0.000150   0.000121
     26       0.002600   0.001058   0.000011
     27       0.001545  -0.002228  -0.000084
     28      -0.000075   0.000246   0.000062
     29      -0.000649   0.000702   0.000035
     30      -0.014089  -0.003515   0.000214
     31      -0.007137  -0.000731   0.000145
     32      -0.010800  -0.003608   0.000442
     33      -0.530824  -0.113360  -0.000428
     34      -0.273163  -0.071063  -0.000086
     35      -0.424645  -0.081485  -0.001139
     36       0.030041   0.076216   0.000214
     37       0.115130   0.319501   0.000245
     38      -0.236031  -0.758677  -0.000458
     39       0.080318  -0.062975   0.000144
     40      -0.615805   0.528827   0.000197
     41      -0.027619   0.041832  -0.000406
     42       0.000303   0.000362   0.000997
     43       0.000334  -0.000094   0.000268
     44       0.000073  -0.000188   0.000163
     45      -0.000470   0.000369   0.000960
     46       0.000208  -0.000508  -0.000191
     47       0.001708  -0.000656  -0.001486
     48      -0.004154   0.003819  -0.000099
     49       0.004071  -0.003384   0.000363
     50       0.001077  -0.001591   0.001872
     51       0.008625   0.000613  -0.004250
     52       0.001445  -0.000023   0.000128
     53      -0.000312  -0.000100   0.004194
     54      -0.000453  -0.000341   0.502633
     55       0.000199   0.000603  -0.503604
     56      -0.000686  -0.000323   0.699848


-----------
IR SPECTRUM
-----------

 Mode    freq (cm**-1)   T**2         TX         TY         TZ
-------------------------------------------------------------------
   6:        53.22    1.949181  (  0.371383   0.436350   1.273128)
   7:       152.56    2.359964  (  0.391816   0.362715   1.440445)
   8:       207.52    4.537639  (  0.175449   0.940275  -1.903349)
   9:       211.23    2.339728  (  0.013827  -0.249511   1.509066)
  10:       250.94    4.756459  ( -0.620248  -0.613678  -1.998787)
  11:       336.09   76.889349  (  5.021139   6.301045   3.460396)
  12:       346.19   32.204718  (  2.671496   4.323299  -2.525255)
  13:       369.94   45.952923  (  5.565260   3.388746  -1.870081)
  14:       415.12   11.833161  ( -1.342961  -2.857576  -1.365238)
  15:       472.94    1.334577  ( -1.085485  -0.278150   0.280947)
  16:       545.48    3.625879  ( -0.810985   0.162089  -1.715199)
  17:       738.89    4.367465  (  1.021226   0.265804   1.803860)
  18:       823.38    5.259800  ( -1.716166   0.182076  -1.510438)
  19:       866.24    3.191445  ( -1.102611   1.113647   0.857603)
  20:       920.00    8.477165  (  1.148989   1.971819  -1.808015)
  21:       935.65    8.243409  ( -0.546883   2.809248  -0.229025)
  22:       942.93    8.420426  (  0.641285   1.274736  -2.526703)
  23:       969.11   11.972429  (  1.400086   0.659844  -3.094640)
  24:      1041.69    5.838174  ( -0.406461   1.095551  -2.114883)
  25:      1047.64   10.278165  (  2.770325   1.042141  -1.231831)
  26:      1066.98   27.605891  (  0.732662  -0.892291   5.125711)
  27:      1101.75    7.345922  (  0.406348  -1.914799  -1.874659)
  28:      1147.24   14.329626  ( -2.959066   2.282090  -0.604664)
  29:      1155.11    5.557043  ( -1.058000  -0.533787   2.037830)
  30:      1208.70    8.866573  ( -1.344560  -2.655896   0.070325)
  31:      1234.54    9.333419  (  0.855756   2.465152   1.588750)
  32:      1248.38   97.650088  (  1.804165  -3.171490  -9.183503)
  33:      1290.99   58.256123  ( -2.952619   3.960732   5.818141)
  34:      1350.33    0.792030  ( -0.270677   0.794674  -0.295395)
  35:      1383.88    9.871166  ( -0.415571  -1.112144   2.908883)
  36:      1404.50   20.263219  ( -0.299695   0.618650   4.448671)
  37:      1421.15   29.034898  (  2.512834  -4.258333  -2.141766)
  38:      1442.46   19.923365  ( -0.385373  -2.451565   3.710078)
  39:      1478.40    6.264368  (  2.164355   0.018201   1.256823)
  40:      1485.12  116.762056  (  9.990478  -1.307829  -3.904098)
  41:      1488.75   53.009833  ( -4.947136   1.441993   5.143572)
  42:      1525.97   23.023729  (  1.038144   1.188508   4.531383)
  43:      1647.86   57.185257  (  2.738040   5.342165   4.598877)
  44:      1656.14   48.510565  ( -0.377624  -3.651276   5.919134)
  45:      3056.07    4.043980  ( -1.620250  -0.241281   1.166428)
  46:      3057.65   49.482235  ( -5.190908  -1.941452   4.332144)
  47:      3083.13    2.842082  (  0.590112   0.584193   1.467163)
  48:      3133.37   13.776586  (  2.756936  -0.857875  -2.332368)
  49:      3135.11    8.562484  (  0.453982  -0.498455   2.847442)
  50:      3156.04    1.237333  ( -0.218847  -1.040469   0.326900)
  51:      3181.65    2.519101  ( -1.310124  -0.049137   0.894574)
  52:      3236.16    1.662405  ( -0.106046   1.111042   0.645557)
  53:      3417.04   22.443552  (  4.358562  -1.349065  -1.275347)
  54:      3499.79   69.721643  ( -2.775686  -5.563612  -5.573458)
  55:      3514.81   96.583666  (  0.083139   6.109344  -7.697576)
  56:      3837.28   86.813214  (  3.153605  -2.734087   8.330231)

The first frequency considered to be a vibration is 6
The total number of vibrations considered is 51


--------------------------
THERMOCHEMISTRY AT 298.15K
--------------------------

Temperature         ... 298.15 K
Pressure            ... 1.00 atm
Total Mass          ... 102.16 AMU

Throughout the following assumptions are being made:
  (1) The electronic state is orbitally nondegenerate
  (2) There are no thermally accessible electronically excited states
  (3) Hindered rotations indicated by low frequency modes) are not
      treated as such but are treated as vibrations and this may
      case some error
  (4) All equations used are the standard statistical mechanics
      equations for an ideal gas
  (5) All vibrations are strinctly harmonic


------------
INNER ENERGY
------------

The inner energy is: U= E(el) + E(ZPE) + E(vib) + E(rot) + E(trans)
    E(el)   - is the total energy from the electronic structure calculation
              = E(kin-el) + E(nuc-el) + E(el-el) + E(nuc-nuc)
    E(ZPE)  - the the zero temperature vibrational energy from the frequency calculation
    E(vib)  - the the finite temperature correction to E(ZPE) due to population
              of excietd vibrational states
    E(rot)  - is the rotational thermal energy
    E(trans)- is the translational thermal energy

Summary of contributions to the inner energy U:
Electronic energy                ...   -327.19808396 Eh
Zero point energy                ...      0.17471982 Eh     109.64 kcal/mol
Thermal vibrational correction   ...      0.00555009 Eh       3.48 kcal/mol
Thermal rotational correction    ...      0.00141627 Eh       0.89 kcal/mol
Thermal translational correction ...      0.00141627 Eh       0.89 kcal/mol
-----------------------------------------------------------------------
Total thermal energy                   -327.01498150 Eh


Summary of corrections to the electronic energy:
(perhaps to be used in another calculation)
Total thermal correction                  0.00838264 Eh       5.26 kcal/mol
Non-thermal (ZPE) correction              0.17471982 Eh     109.64 kcal/mol
-----------------------------------------------------------------------
Total correction                          0.18310246 Eh     114.90 kcal/mol


--------
ENTHALPY
--------

The enthalpy is H = U + kB*T
                kB is Boltzmann's constant
Total free energy                 ...   -327.01498150 Eh 
Thermal Enthalpy correction       ...      0.00094421 Eh       0.59 kcal/mol
-----------------------------------------------------------------------
Total Enthalpy                    ...   -327.01403729 Eh


-------
ENTROPY
-------

The entropy contributions are T*S = T*(S(el)+S(vib)+S(rot)+S(trans)
     S(el)   - electronic entropy
     S(vib)  - vibrational entropy
     S(rot)  - rotational entropy
     S(trans)- translational entropy
The entropies will be listed as mutliplied by the temperature to get
units of energy

Electronic entropy                ...      0.00000000 Eh      0.00 kcal/mol
Vibrational entropy               ...      0.00979145 Eh      6.14 kcal/mol
Rotational entropy                ...      0.01215990 Eh      7.63 kcal/mol
Translational entropy             ...      0.01890147 Eh     11.86 kcal/mol
-----------------------------------------------------------------------
Final entropy term                ...      0.04085281 Eh     25.64 kcal/mol


CAUTION: The rotational entropy is not quite correctly treated here
         because it includes a symmetry number that is not yet correctly
         implemented in ORCA!
For a nonlinear molecule the correct rotational entropy is:
    S(rot) = R*(ln(qrot/sn)+1.5)
    R    = 8.31441 J/mol/K = 1.987191683e-3 kcal/mol/K
    qrot = 262338.8702809
    sn is the rotational symmetry number. We have assumed 3 here
       if it is different for your molecule then you should correct
       the printed rotational entropy by manually evaluating the equation
       as given above

For convenience we print out the resulting values for sn=1 - 12:
 sn= 1  qrot/sn=  262338.8703 T*S(rot)=     8.28 kcal/mol T*S(tot)=    26.29 kcal/mol
 sn= 2  qrot/sn=  131169.4351 T*S(rot)=     7.87 kcal/mol T*S(tot)=    25.88 kcal/mol
 sn= 3  qrot/sn=   87446.2901 T*S(rot)=     7.63 kcal/mol T*S(tot)=    25.64 kcal/mol
 sn= 4  qrot/sn=   65584.7176 T*S(rot)=     7.46 kcal/mol T*S(tot)=    25.47 kcal/mol
 sn= 5  qrot/sn=   52467.7741 T*S(rot)=     7.33 kcal/mol T*S(tot)=    25.33 kcal/mol
 sn= 6  qrot/sn=   43723.1450 T*S(rot)=     7.22 kcal/mol T*S(tot)=    25.22 kcal/mol
 sn= 7  qrot/sn=   37476.9815 T*S(rot)=     7.13 kcal/mol T*S(tot)=    25.13 kcal/mol
 sn= 8  qrot/sn=   32792.3588 T*S(rot)=     7.05 kcal/mol T*S(tot)=    25.05 kcal/mol
 sn= 9  qrot/sn=   29148.7634 T*S(rot)=     6.98 kcal/mol T*S(tot)=    24.98 kcal/mol
 sn=10  qrot/sn=   26233.8870 T*S(rot)=     6.92 kcal/mol T*S(tot)=    24.92 kcal/mol
 sn=11  qrot/sn=   23848.9882 T*S(rot)=     6.86 kcal/mol T*S(tot)=    24.87 kcal/mol
 sn=12  qrot/sn=   21861.5725 T*S(rot)=     6.81 kcal/mol T*S(tot)=    24.81 kcal/mol


-------------------
GIBBS FREE ENTHALPY
-------------------

The Gibbs free enthalpy is G = H - T*S

Total enthalpy                    ...   -327.01403729 Eh 
Total entropy correction          ...     -0.04085281 Eh    -25.64 kcal/mol
-----------------------------------------------------------------------
Final Gibbs free enthalpy         ...   -327.05489010 Eh

For completeness - the Gibbs free enthalpy minus the electronic energy
G-E(el)                           ...      0.14319385 Eh     89.86 kcal/mol


Timings for individual modules:

Sum of individual times         ...     3362.487 sec (=  56.041 min)
GTO integral calculation        ...       11.703 sec (=   0.195 min)   0.3 %
SCF iterations                  ...      436.435 sec (=   7.274 min)  13.0 %
SCF Gradient evaluation         ...      219.920 sec (=   3.665 min)   6.5 %
Geometry relaxation             ...        0.331 sec (=   0.006 min)   0.0 %
Analytical frequency calculation...     2694.099 sec (=  44.902 min)  80.1 %
                             ****ORCA TERMINATED NORMALLY****
TOTAL RUN TIME: 0 days 0 hours 56 minutes 4 seconds 318 msec
