
                                 *****************
                                 * O   R   C   A *
                                 *****************

           --- An Ab Initio, DFT and Semiempirical electronic structure package ---

                  #######################################################
                  #                        -***-                        #
                  #  Department of molecular theory and spectroscopy    #
                  #              Directorship: Frank Neese              #
                  # Max Planck Institute for Chemical Energy Conversion #
                  #                  D-45470 Muelheim/Ruhr              #
                  #                       Germany                       #
                  #                                                     #
                  #                  All rights reserved                #
                  #                        -***-                        #
                  #######################################################


                         Program Version 3.0.3 - RELEASE   -


 With contributions from (in alphabetic order):
   Ute Becker             : Parallelization
   Dmytro Bykov           : SCF Hessian
   Dmitry Ganyushin       : Spin-Orbit,Spin-Spin,Magnetic field MRCI
   Andreas Hansen         : Spin unrestricted coupled pair/coupled cluster methods
   Dimitrios Liakos       : Extrapolation schemes; parallel MDCI
   Robert Izsak           : Overlap fitted RIJCOSX, COSX-SCS-MP3
   Christian Kollmar      : KDIIS, OOCD, Brueckner-CCSD(T), CCSD density
   Simone Kossmann        : Meta GGA functionals, TD-DFT gradient, OOMP2, MP2 Hessian
   Taras Petrenko         : DFT Hessian,TD-DFT gradient, ASA and ECA modules, normal mode analysis, Resonance Raman, ABS, FL, XAS/XES, NRVS
   Christoph Reimann      : Effective Core Potentials
   Michael Roemelt        : Restricted open shell CIS
   Christoph Riplinger    : Improved optimizer, TS searches, QM/MM, DLPNO-CCSD
   Barbara Sandhoefer     : DKH picture change effects
   Igor Schapiro          : Molecular dynamics
   Kantharuban Sivalingam : CASSCF convergence, NEVPT2
   Boris Wezisla          : Elementary symmetry handling
   Frank Wennmohs         : Technical directorship


 We gratefully acknowledge several colleagues who have allowed us to
 interface, adapt or use parts of their codes:
   Stefan Grimme, W. Hujo, H. Kruse, T. Risthaus : VdW corrections, initial TS optimization,
                                                   DFT functionals, gCP
   Ed Valeev                                     : LibInt (2-el integral package), F12 methods
   Garnet Chan, S. Sharma, R. Olivares           : DMRG
   Ulf Ekstrom                                   : XCFun DFT Library
   Mihaly Kallay                                 : mrcc  (arbitrary order and MRCC methods)
   Andreas Klamt, Michael Diedenhofen            : otool_cosmo (COSMO solvation model)
   Frank Weinhold                                : gennbo (NPA and NBO analysis)
   Christopher J. Cramer and Donald G. Truhlar   : smd solvation model


 Your calculation uses the libint2 library for the computation of 2-el integrals
 For citations please refer to: http://libint.valeyev.net

 This ORCA versions uses:
   CBLAS   interface :  Fast vector & matrix operations
   LAPACKE interface :  Fast linear algebra routines
   SCALAPACK package :  Parallel linear algebra routines


Your calculation utilizes the basis: Ahlrichs-TZV
Cite in your paper:
H - Kr: A. Schaefer, H. Horn and R. Ahlrichs, J. Chem. Phys. 97, 2571 (1992).

The def2-TZV basis will be loaded
Cite in your paper:
 	F. Weigend, R. Ahlrichs, Phys. Chem. Chem. Phys. 2005, 7, 3297.

================================================================================
                                        WARNINGS
                       Please study these warnings very carefully!
================================================================================
Now building the actual basis set
WARNING: Geometry optimizations can change the point-group symmetry!

WARNING: Geometry Optimization
  ===> : Switching off AutoStart
         For restart on a previous wavefunction, please use MOREAD


INFO   : the flag for use of LIBINT has been found!

================================================================================
                                       INPUT FILE
================================================================================
NAME = 5326_+.inp
|  1> ! NORI PBE0 def2-TZVP UseSym TightOPT Freq TightSCF Grid3 FinalGrid5 XYZFile
|  2> % pal
|  3>     nprocs 8
|  4> end
|  5> %method
|  6>     SymThresh 5.0e-2
|  7> end
|  8> % geom 
|  9>     MaxIter 10
| 10> end 
| 11> % maxcore 2000
| 12> % output
| 13>     printlevel mini
| 14>     print[ P_Basis ] 0
| 15>     print[ P_SCFInfo ] 1
| 16>     print[ P_SCFIterInfo ] 1
| 17>     print[ P_OrbEn ] 0
| 18>     print[ P_Cartesian ] 0
| 19> end
| 20> % elprop
| 21>     Dipole false
| 22> end
| 23> *xyz 1 1
| 24>  C        0.6515875801     0.3936777751    -0.7429910872 
| 25>  C        1.9622853936    -0.2362127344    -0.3427636602 
| 26>  N        3.0077376876     0.8099209812    -0.0809035003 
| 27>  C        4.3451268745     0.2756172249     0.3258470875 
| 28>  C        5.3254790129     1.3899443383     0.5598385798 
| 29>  C        5.4951607794     1.9766717483     1.8933845034 
| 30>  O        6.4054003619     1.0251169935     1.3767382684 
| 31>  H       -0.0772096486    -0.3953198955    -0.9313874817 
| 32>  H        0.7432643796     0.9784701341    -1.6614490214 
| 33>  H        0.2460762657     1.0313087267     0.0461811569 
| 34>  H        2.3649196936    -0.8826164390    -1.1243585969 
| 35>  H        1.8771594194    -0.8208504061     0.5745229846 
| 36>  H        2.6706158124     1.4455518782     0.6462961718 
| 37>  H        3.1127226307     1.3846278351    -0.9205759065 
| 38>  H        4.6782076365    -0.3928376093    -0.4704347272 
| 39>  H        4.2071614564    -0.3066973091     1.2377191831 
| 40>  H        5.5917309747     1.9837532229    -0.3155540304 
| 41>  H        4.8834619480     1.6274932023     2.7229654649 
| 42>  H        5.8766117416     2.9896403325     1.9774946114 
| 43> *
| 44> 
| 45>                          ****END OF INPUT****
================================================================================

The point group is C1 - hence turning off symmetry
If this is a round-off problem, please increase the symmetry
        detection tolerance (%method SymThresh)


                       *****************************
                       * Geometry Optimization Run *
                       *****************************

Geometry optimization settings:
Update method            Update   .... BFGS
Choice of coordinates    CoordSys .... Redundant Internals
Initial Hessian          InHess   .... Almoef's Model

Convergence Tolerances:
Energy Change            TolE     ....  1.0000e-06 Eh
Max. Gradient            TolMAXG  ....  1.0000e-04 Eh/bohr
RMS Gradient             TolRMSG  ....  3.0000e-05 Eh/bohr
Max. Displacement        TolMAXD  ....  1.0000e-03 bohr
RMS Displacement         TolRMSD  ....  6.0000e-04 bohr

------------------------------------------------------------------------------
                        ORCA OPTIMIZATION COORDINATE SETUP
------------------------------------------------------------------------------

The optimization will be done in new redundant internal coordinates
Making redundant internal coordinates   ...  (new redundants) done
Evaluating the initial hessian          ...  (Almloef) done
Evaluating the coordinates              ...  done
Calculating the B-matrix                .... done
Calculating the G-matrix                .... done
Diagonalizing the G-matrix              .... done
Small eigenvalue found = 1.771e-02
The first mode is                       ....   53
The number of degrees of freedom        ....   51

    -----------------------------------------------------------------
                    Redundant Internal Coordinates


    -----------------------------------------------------------------
         Definition                    Initial Value    Approx d2E/dq
    -----------------------------------------------------------------
      1. B(C   1,C   0)                  1.5083         0.404622   
      2. B(N   2,C   1)                  1.5020         0.370870   
      3. B(C   3,N   2)                  1.4965         0.378398   
      4. B(C   4,C   3)                  1.5025         0.413256   
      5. B(C   5,C   4)                  1.4668         0.471273   
      6. B(O   6,C   5)                  1.4145         0.511361   
      7. B(O   6,C   4)                  1.4024         0.534728   
      8. B(H   7,C   0)                  1.0905         0.359460   
      9. B(H   8,C   0)                  1.0927         0.356571   
     10. B(H   9,C   0)                  1.0926         0.356658   
     11. B(H  10,C   1)                  1.0913         0.358440   
     12. B(H  11,C   1)                  1.0911         0.358670   
     13. B(H  12,N   2)                  1.0230         0.412552   
     14. B(H  13,N   2)                  1.0229         0.412654   
     15. B(H  14,C   3)                  1.0917         0.357840   
     16. B(H  15,C   3)                  1.0907         0.359170   
     17. B(H  16,C   4)                  1.0908         0.359063   
     18. B(H  17,C   5)                  1.0883         0.362412   
     19. B(H  18,C   5)                  1.0857         0.365871   
     20. A(H   7,C   0,H   9)          107.3965         0.290320   
     21. A(C   1,C   0,H   9)          111.9984         0.328089   
     22. A(C   1,C   0,H   8)          111.9405         0.328076   
     23. A(C   1,C   0,H   7)          108.9328         0.328513   
     24. A(H   8,C   0,H   9)          109.0217         0.289953   
     25. A(H   7,C   0,H   8)          107.3424         0.290309   
     26. A(C   0,C   1,H  10)          112.2071         0.328359   
     27. A(H  10,C   1,H  11)          108.2723         0.290447   
     28. A(C   0,C   1,N   2)          111.1161         0.365600   
     29. A(N   2,C   1,H  11)          106.3165         0.321789   
     30. A(N   2,C   1,H  10)          106.2976         0.321756   
     31. A(C   0,C   1,H  11)          112.2758         0.328394   
     32. A(H  12,N   2,H  13)          105.5600         0.298692   
     33. A(C   3,N   2,H  13)          109.3891         0.327577   
     34. A(C   1,N   2,H  13)          108.6414         0.326495   
     35. A(C   3,N   2,H  12)          108.8528         0.327564   
     36. A(C   1,N   2,H  12)          109.1065         0.326482   
     37. A(C   1,N   2,C   3)          114.8821         0.359195   
     38. A(C   4,C   3,H  15)          110.3825         0.329617   
     39. A(N   2,C   3,H  15)          107.7467         0.322924   
     40. A(C   4,C   3,H  14)          111.6309         0.329415   
     41. A(N   2,C   3,H  14)          107.0390         0.322728   
     42. A(N   2,C   3,C   4)          111.1392         0.368192   
     43. A(H  14,C   3,H  15)          108.7530         0.290434   
     44. A(C   5,C   4,H  16)          118.9238         0.336862   
     45. A(C   3,C   4,H  16)          115.9777         0.329600   
     46. A(C   5,C   4,O   6)           59.0274         0.400034   
     47. A(C   3,C   4,O   6)          113.5923         0.390922   
     48. A(O   6,C   4,H  16)          114.9066         0.341952   
     49. A(C   3,C   4,C   5)          120.9131         0.384847   
     50. A(C   4,C   5,O   6)           58.2162         0.396905   
     51. A(H  17,C   5,H  18)          115.9640         0.291861   
     52. A(O   6,C   5,H  18)          115.4583         0.340473   
     53. A(C   4,C   5,H  18)          118.9673         0.337918   
     54. A(O   6,C   5,H  17)          115.1051         0.339933   
     55. A(C   4,C   5,H  17)          119.9797         0.337383   
     56. A(C   4,O   6,C   5)           62.7564         0.403228   
     57. D(H  10,C   1,C   0,H   9)    179.3668         0.012979   
     58. D(H  11,C   1,C   0,H   8)    179.9449         0.012979   
     59. D(N   2,C   1,C   0,H   9)    -61.7788         0.012979   
     60. D(H  11,C   1,C   0,H   9)     57.1453         0.012979   
     61. D(N   2,C   1,C   0,H   8)     61.0208         0.012979   
     62. D(H  10,C   1,C   0,H   7)     60.7155         0.012979   
     63. D(H  10,C   1,C   0,H   8)    -57.8336         0.012979   
     64. D(N   2,C   1,C   0,H   7)    179.5698         0.012979   
     65. D(H  11,C   1,C   0,H   7)    -61.5060         0.012979   
     66. D(H  12,N   2,C   1,H  10)    179.7266         0.012615   
     67. D(C   3,N   2,C   1,H  11)     57.4606         0.012615   
     68. D(H  12,N   2,C   1,C   0)     57.3803         0.012615   
     69. D(C   3,N   2,C   1,C   0)    179.9031         0.012615   
     70. D(H  12,N   2,C   1,H  11)    -65.0622         0.012615   
     71. D(H  13,N   2,C   1,H  11)   -179.6736         0.012615   
     72. D(H  13,N   2,C   1,H  10)     65.1153         0.012615   
     73. D(H  13,N   2,C   1,C   0)    -57.2310         0.012615   
     74. D(C   3,N   2,C   1,H  10)    -57.7506         0.012615   
     75. D(H  15,C   3,N   2,H  12)     63.4580         0.013115   
     76. D(H  15,C   3,N   2,C   1)    -59.2013         0.013115   
     77. D(H  14,C   3,N   2,H  13)    -64.8487         0.013115   
     78. D(H  14,C   3,N   2,H  12)   -179.7256         0.013115   
     79. D(H  14,C   3,N   2,C   1)     57.6152         0.013115   
     80. D(C   4,C   3,N   2,H  13)     57.2828         0.013115   
     81. D(C   4,C   3,N   2,H  12)    -57.5940         0.013115   
     82. D(H  15,C   3,N   2,H  13)    178.3348         0.013115   
     83. D(C   4,C   3,N   2,C   1)    179.7467         0.013115   
     84. D(O   6,C   4,C   3,N   2)    158.4613         0.013523   
     85. D(C   5,C   4,C   3,H  15)    -27.8865         0.013523   
     86. D(C   5,C   4,C   3,H  14)   -148.9698         0.013523   
     87. D(C   5,C   4,C   3,N   2)     91.6046         0.013523   
     88. D(H  16,C   4,C   3,H  15)    175.3556         0.013523   
     89. D(H  16,C   4,C   3,H  14)     54.2723         0.013523   
     90. D(H  16,C   4,C   3,N   2)    -65.1532         0.013523   
     91. D(O   6,C   4,C   3,H  15)     38.9701         0.013523   
     92. D(O   6,C   4,C   3,H  14)    -82.1132         0.013523   
     93. D(H  18,C   5,C   4,H  16)      0.3224         0.017550   
     94. D(H  18,C   5,C   4,C   3)   -155.7675         0.017550   
     95. D(H  17,C   5,C   4,H  16)    154.0944         0.017550   
     96. D(H  17,C   5,C   4,O   6)   -102.6370         0.017550   
     97. D(H  17,C   5,C   4,C   3)     -1.9954         0.017550   
     98. D(H  18,C   5,C   4,O   6)    103.5910         0.017550   
     99. D(O   6,C   5,C   4,H  16)   -103.2686         0.017550   
    100. D(O   6,C   5,C   4,C   3)    100.6416         0.017550   
    101. D(C   4,O   6,C   5,H  18)   -109.6349         0.020705   
    102. D(C   4,O   6,C   5,H  17)    111.0294         0.020705   
    103. D(C   5,O   6,C   4,H  16)    110.0734         0.022725   
    104. D(C   5,O   6,C   4,C   3)   -113.0597         0.022725   
    -----------------------------------------------------------------

Number of atoms                         .... 19
Number of degrees of freedom            .... 104

         *************************************************************
         *                GEOMETRY OPTIMIZATION CYCLE   1            *
         *************************************************************


           ************************************************************
           *        Program running with 8 parallel MPI-processes     *
           *              working on a common directory               *
           ************************************************************
           ************************************************************
           *              Shut down parallel processing               *
           ************************************************************


           ************************************************************
           *        Program running with 8 parallel MPI-processes     *
           *              working on a common directory               *
           ************************************************************
------------
SCF SETTINGS
------------
Hamiltonian:
 Density Functional     Method          .... DFT(GTOs)
 Exchange Functional    Exchange        .... PBE
   PBE kappa parameter  XKappa          ....  0.804000
 Correlation Functional Correlation     .... PBE
 LDA part of GGA corr.  LDAOpt          .... PW91-LDA
 Gradients option       PostSCFGGA      .... off
 Hybrid DFT is turned on
   Fraction HF Exchange ScalHFX         ....  0.250000
   Scaling of DF-GGA-X  ScalDFX         ....  0.750000
   Scaling of DF-GGA-C  ScalDFC         ....  1.000000
   Scaling of DF-LDA-C  ScalLDAC        ....  1.000000
   Perturbative correction              ....  0.000000
   NL short-range parameter             ....  6.900000


General Settings:
 Integral files         IntName         .... 5326_+
 Hartree-Fock type      HFTyp           .... RHF
 Total Charge           Charge          ....    1
 Multiplicity           Mult            ....    1
 Number of Electrons    NEL             ....   56
 Basis Dimension        Dim             ....  289
 Nuclear Repulsion      ENuc            ....    319.9216889219 Eh

Convergence Acceleration:
 DIIS                   CNVDIIS         .... on
   Start iteration      DIISMaxIt       ....    12
   Startup error        DIISStart       ....  0.200000
   # of expansion vecs  DIISMaxEq       ....     5
   Bias factor          DIISBfac        ....   1.050
   Max. coefficient     DIISMaxC        ....  10.000
 Newton-Raphson         CNVNR           .... off
 SOSCF                  CNVSOSCF        .... on
   Start iteration      SOSCFMaxIt      ....   150
   Startup grad/error   SOSCFStart      ....  0.003300
 Level Shifting         CNVShift        .... on
   Level shift para.    LevelShift      ....    0.2500
   Turn off err/grad.   ShiftErr        ....    0.0010
 Zerner damping         CNVZerner       .... off
 Static damping         CNVDamp         .... on
   Fraction old density DampFac         ....    0.7000
   Max. Damping (<1)    DampMax         ....    0.9800
   Min. Damping (>=0)   DampMin         ....    0.0000
   Turn off err/grad.   DampErr         ....    0.1000
 Fernandez-Rico         CNVRico         .... off

SCF Procedure:
 Maximum # iterations   MaxIter         ....   125
 SCF integral mode      SCFMode         .... Direct
   Integral package                     .... LIBINT
 Reset frequeny         DirectResetFreq ....    20
 Integral Threshold     Thresh          ....  2.500e-11 Eh
 Primitive CutOff       TCut            ....  2.500e-12 Eh

Convergence Tolerance:
 Convergence Check Mode ConvCheckMode   .... Total+1el-Energy
 Energy Change          TolE            ....  1.000e-08 Eh
 1-El. energy change                    ....  1.000e-05 Eh
 Orbital Gradient       TolG            ....  1.000e-05
 Orbital Rotation angle TolX            ....  1.000e-05
 DIIS Error             TolErr          ....  5.000e-07


Diagonalization of the overlap matrix:
Smallest eigenvalue                        ... 1.615e-04
Time for diagonalization                   ...    0.855 sec
Threshold for overlap eigenvalues          ... 1.000e-08
Number of eigenvalues below threshold      ... 0
Time for construction of square roots      ...    0.065 sec
Total time needed                          ...    0.920 sec

-------------------
DFT GRID GENERATION
-------------------

General Integration Accuracy     IntAcc      ...  4.340
Radial Grid Type                 RadialGrid  ... Gauss-Chebyshev
Angular Grid (max. acc.)         AngularGrid ... Lebedev-194
Angular grid pruning method      GridPruning ... 3 (G Style)
Weight generation scheme         WeightScheme... Becke
Basis function cutoff            BFCut       ...    1.0000e-11
Integration weight cutoff        WCut        ...    1.0000e-14
Grids for H and He will be reduced by one unit

# of grid points (after initial pruning)     ...  41422 (   0.0 sec)
# of grid points (after weights+screening)   ...  38019 (   0.3 sec)
nearest neighbour list constructed           ...    0.0 sec
Grid point re-assignment to atoms done       ...    0.0 sec
Grid point division into batches done        ...    0.1 sec
Reduced shell lists constructed in    0.1 sec

Total number of grid points                  ...    38019
Total number of batches                      ...      602
Average number of points per batch           ...       63
Average number of grid points per atom       ...     2001
Average number of shells per batch           ...    92.69 (74.15%)
Average number of basis functions per batch  ...   213.31 (73.81%)
Average number of large shells per batch     ...    75.17 (81.10%)
Average number of large basis fcns per batch ...   172.23 (80.74%)
Maximum spatial batch extension              ...   2.23,  2.09,  2.18 au
Average spatial batch extension              ...   0.14,  0.14,  0.14 au

Time for grid setup =    1.020 sec

Loading Hartree-Fock densities                     ... done
Calculating cut-offs                               ... done
Setting up the integral package                    ... done
Initializing the effective Hamiltonian             ... done
Starting the Coulomb interaction                   ... done (   0.1 sec)
Reading the grid                                   ... done
Mapping shells                                     ... done
Starting the XC term evaluation                    ... done (   0.6 sec)
  promolecular density results
     # of electrons  =     56.990904726
     EX              =    -43.868270038
     EC              =     -1.882142212
     EX+EC           =    -45.750412249
Transforming the Hamiltonian                       ... done (   0.0 sec)
Diagonalizing the Hamiltonian                      ... done (   0.9 sec)
Back transforming the eigenvectors                 ... done (   0.0 sec)
Now organizing SCF variables                       ... done
--------------
SCF ITERATIONS
--------------
ITER       Energy         Delta-E        Max-DP      RMS-DP      [F,P]     Damp
               ***  Starting incremental Fock matrix formation  ***
  0   -327.0444327863   0.000000000000 0.05392726  0.00089971  0.1702115 0.7000
  1   -327.1068791884  -0.062446402177 0.05244836  0.00074281  0.0907081 0.7000
                               ***Turning on DIIS***
  2   -327.1342952661  -0.027416077686 0.08407005  0.00136849  0.0363944 0.0000
  3   -327.1770344575  -0.042739191356 0.04310010  0.00050883  0.0479940 0.0000
  4   -327.1856099472  -0.008575489717 0.01025377  0.00013369  0.0094865 0.0000
  5   -327.1859319549  -0.000322007738 0.00542400  0.00006128  0.0059762 0.0000
                      *** Initiating the SOSCF procedure ***
                           *** Shutting down DIIS ***
                      *** Re-Reading the Fockian *** 
                      *** Removing any level shift *** 
ITER      Energy       Delta-E        Grad      Rot      Max-DP    RMS-DP
  6   -327.18599109  -0.0000591310  0.000117  0.000117  0.002436  0.000030
               *** Restarting incremental Fock matrix formation ***
  7   -327.18599260  -0.0000015098  0.000050  0.000081  0.000171  0.000004
  8   -327.18599250   0.0000000941  0.000054  0.000052  0.000136  0.000002
  9   -327.18599283  -0.0000003310  0.000008  0.000012  0.000044  0.000001
 10   -327.18599283   0.0000000050  0.000012  0.000008  0.000037  0.000000
                  ***Gradient check signals convergence***
              ***Rediagonalizing the Fockian in SOSCF/NRSCF***

               *****************************************************
               *                     SUCCESS                       *
               *           SCF CONVERGED AFTER  11 CYCLES          *
               *****************************************************

Setting up the final grid:

General Integration Accuracy     IntAcc      ...  5.010
Radial Grid Type                 RadialGrid  ... Gauss-Chebyshev
Angular Grid (max. acc.)         AngularGrid ... Lebedev-434
Angular grid pruning method      GridPruning ... 3 (G Style)
Weight generation scheme         WeightScheme... Becke
Basis function cutoff            BFCut       ...    1.0000e-11
Integration weight cutoff        WCut        ...    1.0000e-14
Grids for H and He will be reduced by one unit

# of grid points (after initial pruning)     ... 155226 (   0.0 sec)
# of grid points (after weights+screening)   ... 140791 (   5.1 sec)
nearest neighbour list constructed           ...    0.0 sec
Grid point re-assignment to atoms done       ...    0.0 sec
Grid point division into batches done        ...    1.5 sec
Reduced shell lists constructed in    1.8 sec

Total number of grid points                  ...   140791
Total number of batches                      ...     2209
Average number of points per batch           ...       63
Average number of grid points per atom       ...     7410
Average number of shells per batch           ...    92.32 (73.86%)
Average number of basis functions per batch  ...   212.85 (73.65%)
Average number of large shells per batch     ...    74.53 (80.72%)
Average number of large basis fcns per batch ...   171.76 (80.70%)
Maximum spatial batch extension              ...   2.45,  2.33,  2.52 au
Average spatial batch extension              ...   0.09,  0.10,  0.10 au

Final grid set up in    8.2 sec
Final integration                            ... done (   1.4 sec)
Change in XC energy                          ...     0.000162996
Integrated number of electrons               ...    56.000030837
Previous integrated no of electrons          ...    55.998394717
Total Energy       :         -327.18582984 Eh           -8903.17906 eV
  Last Energy change         ...   -9.5650e-09  Tolerance :   1.0000e-08
  Last MAX-Density change    ...    3.4185e-06  Tolerance :   1.0000e-07
             **** THE GBW FILE WAS UPDATED (5326_+.gbw) ****
             **** DENSITY FILE WAS UPDATED (5326_+.scfp.tmp) ****
             **** ENERGY FILE WAS UPDATED (5326_+.en.tmp) ****
Total SCF time: 0 days 0 hours 1 min 52 sec 
           ************************************************************
           *              Shut down parallel processing               *
           ************************************************************

-------------------------   --------------------
FINAL SINGLE POINT ENERGY      -327.185829841298
-------------------------   --------------------



           ************************************************************
           *        Program running with 8 parallel MPI-processes     *
           *              working on a common directory               *
           ************************************************************
------------------------------------------------------------------------------
                         ORCA SCF GRADIENT CALCULATION
------------------------------------------------------------------------------

Gradient of the Kohn-Sham DFT energy:
Kohn-Sham wavefunction type      ... RKS
Hartree-Fock exchange scaling    ...    0.250
Number of operators              ...    1
Number of atoms                  ...   19
Basis set dimensions             ...  289
Integral neglect threshold       ... 2.5e-11
Integral primitive cutoff        ... 2.5e-12

Nuclear repulsion gradient       ... done
One Electron Gradient            ... done
Pre-screening matrix             ... done
Starting the two electron gradient:
Two electron gradient done
Exchange-correlation gradient    ... done

------------------
CARTESIAN GRADIENT
------------------

   1   C   :   -0.000028244   -0.000099781   -0.000135035
   2   C   :   -0.000016676    0.000321416    0.000035225
   3   N   :    0.000051197   -0.000143709   -0.000035825
   4   C   :    0.000023131    0.000085111   -0.000011188
   5   C   :    0.000109284   -0.000060904   -0.000057758
   6   C   :   -0.000010370    0.000067560    0.000191856
   7   O   :   -0.000056943    0.000080413   -0.000036677
   8   H   :    0.000043647    0.000000068    0.000060433
   9   H   :    0.000030631    0.000012916    0.000056129
  10   H   :   -0.000047712    0.000073032   -0.000003950
  11   H   :    0.000148880   -0.000288464   -0.000048103
  12   H   :   -0.000175333   -0.000029021    0.000002202
  13   H   :   -0.000087991    0.000106385    0.000045551
  14   H   :    0.000108663    0.000013247    0.000005173
  15   H   :    0.000038931   -0.000042267   -0.000014678
  16   H   :   -0.000150936   -0.000043030    0.000037482
  17   H   :    0.000042012   -0.000003677   -0.000025394
  18   H   :    0.000011103    0.000003896   -0.000008928
  19   H   :   -0.000033274   -0.000053189   -0.000056515

Norm of the cartesian gradient     ...    0.000683367
RMS gradient                       ...    0.000090514
MAX gradient                       ...    0.000321416

-------
TIMINGS
-------

Total SCF gradient time            ...       44.930 sec

One electron gradient       ....       0.230 sec  (  0.5%)
Prescreening matrices       ....       0.685 sec  (  1.5%)
Two electron gradient       ....      30.005 sec  ( 66.8%)
XC gradient                 ....       4.626 sec  ( 10.3%)
           ************************************************************
           *              Shut down parallel processing               *
           ************************************************************
------------------------------------------------------------------------------
                         ORCA GEOMETRY RELAXATION STEP
------------------------------------------------------------------------------

Reading the OPT-File                    .... done
Getting information on internals        .... done
Copying old internal coords+grads       .... done
Making the new internal coordinates     .... (new redundants).... done
Validating the new internal coordinates .... (new redundants).... done
Calculating the B-matrix                .... done
Calculating the G,G- and P matrices     .... done
Transforming gradient to internals      .... done
Projecting the internal gradient        .... done
Number of atoms                         ....  19
Number of internal coordinates          .... 104
Current Energy                          ....  -327.185829841 Eh
Current gradient norm                   ....     0.000683367 Eh/bohr
Maximum allowed component of the step   ....  0.300
Current trust radius                    ....  0.300
Evaluating the initial hessian          ....  (Almloef) done
Projecting the Hessian                  .... done
Forming the augmented Hessian           .... done
Diagonalizing the augmented Hessian     .... done
Last element of RFO vector              ....  0.999984263
Lowest eigenvalues of augmented Hessian:
 -0.000001270  0.012614777  0.012979666  0.013115470  0.013522634
Length of the computed step             ....  0.005610189
The final length of the internal step   ....  0.005610189
Converting the step to cartesian space:
 Initial RMS(Int)=    0.0005501243
Transforming coordinates:
 Iter   0:  RMS(Cart)=    0.0015163754 RMS(Int)=    0.6160069254
 Iter   1:  RMS(Cart)=    0.0000013037 RMS(Int)=    0.0000008763
 Iter   2:  RMS(Cart)=    0.0000000026 RMS(Int)=    0.0000000016
done
Storing new coordinates                 .... done

                                .--------------------.
          ----------------------|Geometry convergence|---------------------
          Item                value                 Tolerance   Converged
          -----------------------------------------------------------------
          RMS gradient        0.00005279            0.00003000      NO
          MAX gradient        0.00032217            0.00010000      NO
          RMS step            0.00055012            0.00060000      YES
          MAX step            0.00162763            0.00100000      NO
          ....................................................
          Max(Bonds)      0.0005      Max(Angles)    0.02
          Max(Dihed)        0.09      Max(Improp)    0.00
          -----------------------------------------------------------------

The optimization has not yet converged - more geometry cycles are needed


    ---------------------------------------------------------------------------
                         Redundant Internal Coordinates
                            (Angstroem and degrees)

        Definition                    Value    dE/dq     Step     New-Value
    ----------------------------------------------------------------------------
     1. B(C   1,C   0)                1.5083  0.000014 -0.0000    1.5082   
     2. B(N   2,C   1)                1.5020  0.000045 -0.0001    1.5019   
     3. B(C   3,N   2)                1.4965  0.000008 -0.0000    1.4965   
     4. B(C   4,C   3)                1.5025  0.000046 -0.0001    1.5025   
     5. B(C   5,C   4)                1.4668  0.000094 -0.0001    1.4666   
     6. B(O   6,C   5)                1.4145 -0.000046  0.0001    1.4146   
     7. B(O   6,C   4)                1.4024  0.000018 -0.0000    1.4023   
     8. B(H   7,C   0)                1.0905 -0.000061  0.0001    1.0906   
     9. B(H   8,C   0)                1.0927  0.000023 -0.0000    1.0926   
    10. B(H   9,C   0)                1.0926  0.000087 -0.0001    1.0925   
    11. B(H  10,C   1)                1.0913  0.000322 -0.0005    1.0908   
    12. B(H  11,C   1)                1.0911  0.000175 -0.0003    1.0908   
    13. B(H  12,N   2)                1.0230  0.000133 -0.0002    1.0228   
    14. B(H  13,N   2)                1.0229  0.000108 -0.0001    1.0228   
    15. B(H  14,C   3)                1.0917  0.000055 -0.0001    1.0916   
    16. B(H  15,C   3)                1.0907  0.000159 -0.0002    1.0905   
    17. B(H  16,C   4)                1.0908  0.000041 -0.0001    1.0907   
    18. B(H  17,C   5)                1.0883 -0.000007  0.0000    1.0883   
    19. B(H  18,C   5)                1.0857 -0.000081  0.0001    1.0858   
    20. A(H   7,C   0,H   9)          107.40  0.000021   -0.01    107.39   
    21. A(C   1,C   0,H   9)          112.00  0.000016   -0.00    112.00   
    22. A(C   1,C   0,H   8)          111.94 -0.000071    0.01    111.96   
    23. A(C   1,C   0,H   7)          108.93 -0.000022    0.00    108.94   
    24. A(H   8,C   0,H   9)          109.02  0.000021   -0.00    109.02   
    25. A(H   7,C   0,H   8)          107.34  0.000039   -0.01    107.34   
    26. A(C   0,C   1,H  10)          112.21 -0.000040    0.02    112.23   
    27. A(H  10,C   1,H  11)          108.27  0.000004   -0.00    108.27   
    28. A(C   0,C   1,N   2)          111.12 -0.000016    0.00    111.12   
    29. A(N   2,C   1,H  11)          106.32  0.000043   -0.02    106.30   
    30. A(N   2,C   1,H  10)          106.30  0.000019    0.00    106.30   
    31. A(C   0,C   1,H  11)          112.28 -0.000006   -0.00    112.27   
    32. A(H  12,N   2,H  13)          105.56  0.000025   -0.00    105.56   
    33. A(C   3,N   2,H  13)          109.39 -0.000029    0.01    109.40   
    34. A(C   1,N   2,H  13)          108.64 -0.000028    0.00    108.64   
    35. A(C   3,N   2,H  12)          108.85 -0.000064    0.01    108.87   
    36. A(C   1,N   2,H  12)          109.11  0.000007   -0.00    109.10   
    37. A(C   1,N   2,C   3)          114.88  0.000086   -0.01    114.87   
    38. A(C   4,C   3,H  15)          110.38  0.000037   -0.01    110.37   
    39. A(N   2,C   3,H  15)          107.75  0.000036   -0.01    107.73   
    40. A(C   4,C   3,H  14)          111.63  0.000001    0.01    111.64   
    41. A(N   2,C   3,H  14)          107.04  0.000013    0.01    107.05   
    42. A(N   2,C   3,C   4)          111.14 -0.000073    0.01    111.15   
    43. A(H  14,C   3,H  15)          108.75 -0.000013   -0.00    108.75   
    44. A(C   5,C   4,H  16)          118.92  0.000007    0.00    118.93   
    45. A(C   3,C   4,H  16)          115.98 -0.000039    0.01    115.98   
    46. A(C   5,C   4,O   6)           59.03 -0.000044    0.01     59.03   
    47. A(C   3,C   4,O   6)          113.59  0.000025    0.00    113.59   
    48. A(O   6,C   4,H  16)          114.91  0.000022   -0.01    114.90   
    49. A(C   3,C   4,C   5)          120.91  0.000036   -0.01    120.91   
    50. A(C   4,C   5,O   6)           58.22 -0.000004   -0.00     58.22   
    51. A(H  17,C   5,H  18)          115.96  0.000000   -0.00    115.96   
    52. A(O   6,C   5,H  18)          115.46  0.000011   -0.01    115.45   
    53. A(C   4,C   5,H  18)          118.97 -0.000003    0.00    118.97   
    54. A(O   6,C   5,H  17)          115.11  0.000001   -0.00    115.10   
    55. A(C   4,C   5,H  17)          119.98 -0.000004    0.00    119.98   
    56. A(C   4,O   6,C   5)           62.76  0.000048   -0.01     62.75   
    57. D(H  10,C   1,C   0,H   9)    179.37 -0.000010    0.07    179.43   
    58. D(H  11,C   1,C   0,H   8)    179.94  0.000004    0.06    180.01   
    59. D(N   2,C   1,C   0,H   9)    -61.78 -0.000023    0.08    -61.70   
    60. D(H  11,C   1,C   0,H   9)     57.15  0.000017    0.06     57.20   
    61. D(N   2,C   1,C   0,H   8)     61.02 -0.000036    0.09     61.11   
    62. D(H  10,C   1,C   0,H   7)     60.72 -0.000032    0.08     60.79   
    63. D(H  10,C   1,C   0,H   8)    -57.83 -0.000023    0.07    -57.76   
    64. D(N   2,C   1,C   0,H   7)    179.57 -0.000045    0.09    179.66   
    65. D(H  11,C   1,C   0,H   7)    -61.51 -0.000005    0.07    -61.44   
    66. D(H  12,N   2,C   1,H  10)    179.73 -0.000015    0.01    179.74   
    67. D(C   3,N   2,C   1,H  11)     57.46  0.000001    0.01     57.47   
    68. D(H  12,N   2,C   1,C   0)     57.38  0.000030   -0.01     57.37   
    69. D(C   3,N   2,C   1,C   0)    179.90  0.000013   -0.01    179.89   
    70. D(H  12,N   2,C   1,H  11)    -65.06  0.000018    0.00    -65.06   
    71. D(H  13,N   2,C   1,H  11)   -179.67  0.000001    0.01   -179.67   
    72. D(H  13,N   2,C   1,H  10)     65.12 -0.000033    0.02     65.13   
    73. D(H  13,N   2,C   1,C   0)    -57.23  0.000013   -0.01    -57.24   
    74. D(C   3,N   2,C   1,H  10)    -57.75 -0.000033    0.02    -57.73   
    75. D(H  15,C   3,N   2,H  12)     63.46  0.000005    0.05     63.51   
    76. D(H  15,C   3,N   2,C   1)    -59.20 -0.000015    0.06    -59.14   
    77. D(H  14,C   3,N   2,H  13)    -64.85 -0.000007    0.05    -64.79   
    78. D(H  14,C   3,N   2,H  12)   -179.73  0.000015    0.05   -179.68   
    79. D(H  14,C   3,N   2,C   1)     57.62 -0.000006    0.05     57.67   
    80. D(C   4,C   3,N   2,H  13)     57.28 -0.000041    0.08     57.36   
    81. D(C   4,C   3,N   2,H  12)    -57.59 -0.000020    0.07    -57.52   
    82. D(H  15,C   3,N   2,H  13)    178.33 -0.000016    0.06    178.39   
    83. D(C   4,C   3,N   2,C   1)    179.75 -0.000040    0.08    179.82   
    84. D(O   6,C   4,C   3,N   2)    158.46 -0.000005    0.02    158.48   
    85. D(C   5,C   4,C   3,H  15)    -27.89  0.000004    0.03    -27.86   
    86. D(C   5,C   4,C   3,H  14)   -148.97 -0.000005    0.03   -148.94   
    87. D(C   5,C   4,C   3,N   2)     91.60  0.000027    0.01     91.61   
    88. D(H  16,C   4,C   3,H  15)    175.36 -0.000008    0.03    175.39   
    89. D(H  16,C   4,C   3,H  14)     54.27 -0.000018    0.04     54.31   
    90. D(H  16,C   4,C   3,N   2)    -65.15  0.000015    0.01    -65.14   
    91. D(O   6,C   4,C   3,H  15)     38.97 -0.000028    0.03     39.00   
    92. D(O   6,C   4,C   3,H  14)    -82.11 -0.000038    0.04    -82.07   
    93. D(H  18,C   5,C   4,H  16)      0.32  0.000009   -0.01      0.32   
    94. D(H  18,C   5,C   4,C   3)   -155.77  0.000005   -0.00   -155.77   
    95. D(H  17,C   5,C   4,H  16)    154.09 -0.000007    0.01    154.10   
    96. D(H  17,C   5,C   4,O   6)   -102.64 -0.000001    0.00   -102.63   
    97. D(H  17,C   5,C   4,C   3)     -2.00 -0.000010    0.01     -1.98   
    98. D(H  18,C   5,C   4,O   6)    103.59  0.000014   -0.01    103.58   
    99. D(O   6,C   5,C   4,H  16)   -103.27 -0.000006    0.01   -103.26   
   100. D(O   6,C   5,C   4,C   3)    100.64 -0.000009    0.01    100.65   
   101. D(C   4,O   6,C   5,H  18)   -109.63  0.000011   -0.01   -109.64   
   102. D(C   4,O   6,C   5,H  17)    111.03 -0.000006    0.00    111.03   
   103. D(C   5,O   6,C   4,H  16)    110.07 -0.000015    0.01    110.08   
   104. D(C   5,O   6,C   4,C   3)   -113.06 -0.000022    0.01   -113.05   
    ----------------------------------------------------------------------------

         *************************************************************
         *                GEOMETRY OPTIMIZATION CYCLE   2            *
         *************************************************************
---------------------------------
CARTESIAN COORDINATES (ANGSTROEM)
---------------------------------
  C     -0.095136   -0.098891   -3.437589
  C     -0.351815   -0.796784   -2.125385
  N      0.190546    0.000000   -0.973549
  C     -0.021455   -0.616633    0.373418
  C      0.555254    0.244846    1.460916
  C     -0.264612    1.257530    2.134217
  O     -0.000122   -0.000276    2.725054
  H     -0.496725   -0.709028   -4.247411
  H      0.972651    0.033106   -3.628078
  H     -0.588570    0.874576   -3.486670
  H      0.131094   -1.773607   -2.076194
  H     -1.416526   -0.931432   -1.930038
  H     -0.233160    0.930891   -0.981548
  H      1.190681    0.152561   -1.123658
  H      0.445687   -1.603006    0.350903
  H     -1.095349   -0.740532    0.516686
  H      1.639292    0.365022    1.451029
  H     -1.296320    1.414950    1.825797
  H      0.226253    2.105402    2.602303

----------------------------
CARTESIAN COORDINATES (A.U.)
----------------------------
  NO LB      ZA    FRAG    MASS        X           Y           Z
   0 C     6.0000    0    12.011         -0.179780853781471         -0.186877714363543         -6.496101599013889
   1 C     6.0000    0    12.011         -0.664833116611299         -1.505703358387226         -4.016395339991718
   2 N     7.0000    0    14.007          0.360080468927999          0.000000897899884         -1.839741612206215
   3 C     6.0000    0    12.011         -0.040544612525776         -1.165267609607915          0.705657752407991
   4 C     6.0000    0    12.011          1.049277193973297          0.462691251115581          2.760731020318512
   5 C     6.0000    0    12.011         -0.500043345584277          2.376386531585753          4.033085495686045
   6 O     8.0000    0    15.999         -0.000229893746882         -0.000520947035909          5.149605466331192
   7 H     1.0000    0     1.008         -0.938674485982049         -1.339869139844137         -8.026444046976557
   8 H     1.0000    0     1.008          1.838043458084489          0.062561460805684         -6.856074322633064
   9 H     1.0000    0     1.008         -1.112235640489230          1.652709106499754         -6.588851061864047
  10 H     1.0000    0     1.008          0.247732192538512         -3.351632441625865         -3.923438386973521
  11 H     1.0000    0     1.008         -2.676845747073799         -1.760151600038279         -3.647244136384355
  12 H     1.0000    0     1.008         -0.440608028898023          1.759129405080935         -1.854857323649742
  13 H     1.0000    0     1.008          2.250061560713095          0.288298199315922         -2.123406725509334
  14 H     1.0000    0     1.008          0.842226699074420         -3.029243218730263          0.663110095953833
  15 H     1.0000    0     1.008         -2.069910337162135         -1.399403138992042          0.976394286462256
  16 H     1.0000    0     1.008          3.097813359132169          0.689790676679398          2.742046857694437
  17 H     1.0000    0     1.008         -2.449690060538859          2.673867533192582          3.450255543293948
  18 H     1.0000    0     1.008          0.427556080391936          3.978633943415076          4.917639595533626

--------------------------------
INTERNAL COORDINATES (ANGSTROEM)
--------------------------------
 C      0   0   0   0.000000     0.000     0.000
 C      1   0   0   1.508250     0.000     0.000
 N      2   1   0   1.501914   111.118     0.000
 C      3   2   1   1.496497   114.868   179.895
 C      4   3   2   1.502461   111.152   179.823
 C      5   4   3   1.466643   120.905    91.615
 O      5   4   3   1.402345   113.593   158.478
 H      1   2   3   1.090575   108.936   179.663
 H      1   2   3   1.092647   111.955    61.110
 H      1   2   3   1.092486   111.995   298.303
 H      2   1   3   1.090782   112.226   241.131
 H      2   1   3   1.090826   112.274   118.899
 H      3   2   1   1.022814   109.102    57.367
 H      3   2   1   1.022779   108.644   302.762
 H      4   3   2   1.091633   107.046    57.668
 H      4   3   2   1.090470   107.733   300.857
 H      5   4   3   1.090724   115.983   294.860
 H      6   5   4   1.088268   119.982   358.017
 H      6   5   4   1.085790   118.971   204.230

---------------------------
INTERNAL COORDINATES (A.U.)
---------------------------
 C      0   0   0   0.000000     0.000     0.000
 C      1   0   0   2.850179     0.000     0.000
 N      2   1   0   2.838206   111.118     0.000
 C      3   2   1   2.827969   114.868   179.895
 C      4   3   2   2.839241   111.152   179.823
 C      5   4   3   2.771554   120.905    91.615
 O      5   4   3   2.650048   113.593   158.478
 H      1   2   3   2.060887   108.936   179.663
 H      1   2   3   2.064804   111.955    61.110
 H      1   2   3   2.064499   111.995   298.303
 H      2   1   3   2.061279   112.226   241.131
 H      2   1   3   2.061362   112.274   118.899
 H      3   2   1   1.932838   109.102    57.367
 H      3   2   1   1.932773   108.644   302.762
 H      4   3   2   2.062886   107.046    57.668
 H      4   3   2   2.060690   107.733   300.857
 H      5   4   3   2.061170   115.983   294.860
 H      6   5   4   2.056528   119.982   358.017
 H      6   5   4   2.051846   118.971   204.230



           ************************************************************
           *        Program running with 8 parallel MPI-processes     *
           *              working on a common directory               *
           ************************************************************
           ************************************************************
           *              Shut down parallel processing               *
           ************************************************************


           ************************************************************
           *        Program running with 8 parallel MPI-processes     *
           *              working on a common directory               *
           ************************************************************

Diagonalization of the overlap matrix:
Smallest eigenvalue                        ... 1.615e-04
Time for diagonalization                   ...    0.269 sec
Threshold for overlap eigenvalues          ... 1.000e-08
Number of eigenvalues below threshold      ... 0
Time for construction of square roots      ...    0.063 sec
Total time needed                          ...    0.333 sec

-------------------
DFT GRID GENERATION
-------------------

General Integration Accuracy     IntAcc      ...  4.340
Radial Grid Type                 RadialGrid  ... Gauss-Chebyshev
Angular Grid (max. acc.)         AngularGrid ... Lebedev-194
Angular grid pruning method      GridPruning ... 3 (G Style)
Weight generation scheme         WeightScheme... Becke
Basis function cutoff            BFCut       ...    1.0000e-11
Integration weight cutoff        WCut        ...    1.0000e-14
Grids for H and He will be reduced by one unit

# of grid points (after initial pruning)     ...  41422 (   0.0 sec)
# of grid points (after weights+screening)   ...  38016 (   0.2 sec)
nearest neighbour list constructed           ...    0.0 sec
Grid point re-assignment to atoms done       ...    0.0 sec
Grid point division into batches done        ...    0.1 sec
Reduced shell lists constructed in    0.3 sec

Total number of grid points                  ...    38016
Total number of batches                      ...      602
Average number of points per batch           ...       63
Average number of grid points per atom       ...     2001
Average number of shells per batch           ...    92.74 (74.19%)
Average number of basis functions per batch  ...   213.34 (73.82%)
Average number of large shells per batch     ...    75.10 (80.98%)
Average number of large basis fcns per batch ...   172.22 (80.73%)
Maximum spatial batch extension              ...   2.41,  2.09,  2.18 au
Average spatial batch extension              ...   0.14,  0.14,  0.14 au

Time for grid setup =    0.748 sec

--------------
SCF ITERATIONS
--------------
ITER       Energy         Delta-E        Max-DP      RMS-DP      [F,P]     Damp
               ***  Starting incremental Fock matrix formation  ***
                      *** Initiating the SOSCF procedure ***
                      *** Re-Reading the Fockian *** 
                      *** Removing any level shift *** 
ITER      Energy       Delta-E        Grad      Rot      Max-DP    RMS-DP
  0   -327.18599071 -327.1859907128  0.000144  0.000144  0.000241  0.000005
               *** Restarting incremental Fock matrix formation ***
  1   -327.18599252  -0.0000018062  0.000043  0.000067  0.000095  0.000002
  2   -327.18599269  -0.0000001674  0.000014  0.000020  0.000053  0.000001
  3   -327.18599269   0.0000000012  0.000017  0.000010  0.000039  0.000001
                  ***Gradient check signals convergence***
              ***Rediagonalizing the Fockian in SOSCF/NRSCF***

               *****************************************************
               *                     SUCCESS                       *
               *           SCF CONVERGED AFTER   4 CYCLES          *
               *****************************************************

Setting up the final grid:

General Integration Accuracy     IntAcc      ...  5.010
Radial Grid Type                 RadialGrid  ... Gauss-Chebyshev
Angular Grid (max. acc.)         AngularGrid ... Lebedev-434
Angular grid pruning method      GridPruning ... 3 (G Style)
Weight generation scheme         WeightScheme... Becke
Basis function cutoff            BFCut       ...    1.0000e-11
Integration weight cutoff        WCut        ...    1.0000e-14
Grids for H and He will be reduced by one unit

# of grid points (after initial pruning)     ... 155226 (   0.0 sec)
# of grid points (after weights+screening)   ... 140791 (   5.2 sec)
nearest neighbour list constructed           ...    0.0 sec
Grid point re-assignment to atoms done       ...    0.0 sec
Grid point division into batches done        ...    1.4 sec
Reduced shell lists constructed in    1.9 sec

Total number of grid points                  ...   140791
Total number of batches                      ...     2210
Average number of points per batch           ...       63
Average number of grid points per atom       ...     7410
Average number of shells per batch           ...    92.22 (73.78%)
Average number of basis functions per batch  ...   212.54 (73.54%)
Average number of large shells per batch     ...    74.42 (80.70%)
Average number of large basis fcns per batch ...   171.46 (80.67%)
Maximum spatial batch extension              ...   2.45,  2.33,  2.52 au
Average spatial batch extension              ...   0.09,  0.10,  0.10 au

Final grid set up in    8.4 sec
Final integration                            ... done (   1.4 sec)
Change in XC energy                          ...     0.000162030
Integrated number of electrons               ...    56.000030584
Previous integrated no of electrons          ...    55.998392159
Total Energy       :         -327.18583067 Eh           -8903.17908 eV
  Last Energy change         ...   -1.0763e-08  Tolerance :   1.0000e-08
  Last MAX-Density change    ...    1.3931e-05  Tolerance :   1.0000e-07
             **** THE GBW FILE WAS UPDATED (5326_+.gbw) ****
             **** DENSITY FILE WAS UPDATED (5326_+.scfp.tmp) ****
             **** ENERGY FILE WAS UPDATED (5326_+.en.tmp) ****
Total SCF time: 0 days 0 hours 0 min 54 sec 
           ************************************************************
           *              Shut down parallel processing               *
           ************************************************************

-------------------------   --------------------
FINAL SINGLE POINT ENERGY      -327.185830665976
-------------------------   --------------------



           ************************************************************
           *        Program running with 8 parallel MPI-processes     *
           *              working on a common directory               *
           ************************************************************
------------------------------------------------------------------------------
                         ORCA SCF GRADIENT CALCULATION
------------------------------------------------------------------------------

Gradient of the Kohn-Sham DFT energy:
Kohn-Sham wavefunction type      ... RKS
Hartree-Fock exchange scaling    ...    0.250
Number of operators              ...    1
Number of atoms                  ...   19
Basis set dimensions             ...  289
Integral neglect threshold       ... 2.5e-11
Integral primitive cutoff        ... 2.5e-12

Nuclear repulsion gradient       ... done
One Electron Gradient            ... done
Pre-screening matrix             ... done
Starting the two electron gradient:
Two electron gradient done
Exchange-correlation gradient    ... done

------------------
CARTESIAN GRADIENT
------------------

   1   C   :   -0.000027054    0.000004466   -0.000064446
   2   C   :   -0.000000553    0.000046329    0.000063226
   3   N   :    0.000027820   -0.000031857   -0.000059343
   4   C   :   -0.000036480    0.000031968    0.000009278
   5   C   :    0.000056019   -0.000043606   -0.000031209
   6   C   :   -0.000016864   -0.000016252    0.000086336
   7   O   :   -0.000022634    0.000062700   -0.000023390
   8   H   :    0.000021715   -0.000020587    0.000012359
   9   H   :    0.000009658    0.000013498    0.000036264
  10   H   :   -0.000005899   -0.000004015   -0.000001057
  11   H   :    0.000002711   -0.000016770   -0.000035125
  12   H   :   -0.000001423   -0.000001150    0.000000359
  13   H   :   -0.000016696   -0.000012921    0.000022058
  14   H   :   -0.000006040    0.000004223    0.000014238
  15   H   :    0.000003640   -0.000002755   -0.000006405
  16   H   :    0.000003675   -0.000009333    0.000011492
  17   H   :    0.000002665   -0.000012271   -0.000013790
  18   H   :    0.000001446    0.000002841   -0.000007722
  19   H   :    0.000004292    0.000005492   -0.000013123

Norm of the cartesian gradient     ...    0.000210105
RMS gradient                       ...    0.000027829
MAX gradient                       ...    0.000086336

-------
TIMINGS
-------

Total SCF gradient time            ...       47.395 sec

One electron gradient       ....       0.219 sec  (  0.5%)
Prescreening matrices       ....       0.665 sec  (  1.4%)
Two electron gradient       ....      40.544 sec  ( 85.5%)
XC gradient                 ....       3.510 sec  (  7.4%)
           ************************************************************
           *              Shut down parallel processing               *
           ************************************************************
------------------------------------------------------------------------------
                         ORCA GEOMETRY RELAXATION STEP
------------------------------------------------------------------------------

Reading the OPT-File                    .... done
Getting information on internals        .... done
Copying old internal coords+grads       .... done
Making the new internal coordinates     .... (new redundants).... done
Validating the new internal coordinates .... (new redundants).... done
Calculating the B-matrix                .... done
Calculating the G,G- and P matrices     .... done
Transforming gradient to internals      .... done
Projecting the internal gradient        .... done
Number of atoms                         ....  19
Number of internal coordinates          .... 104
Current Energy                          ....  -327.185830666 Eh
Current gradient norm                   ....     0.000210105 Eh/bohr
Maximum allowed component of the step   ....  0.300
Current trust radius                    ....  0.300
Updating the Hessian (BFGS)             .... done
Forming the augmented Hessian           .... done
Diagonalizing the augmented Hessian     .... done
Last element of RFO vector              ....  0.999959458
Lowest eigenvalues of augmented Hessian:
 -0.000000721  0.007673114  0.012620035  0.013062386  0.013491393
Length of the computed step             ....  0.009004960
The final length of the internal step   ....  0.009004960
Converting the step to cartesian space:
 Initial RMS(Int)=    0.0008830090
Transforming coordinates:
 Iter   0:  RMS(Cart)=    0.0024028142 RMS(Int)=    0.0008829350
 Iter   1:  RMS(Cart)=    0.0000033242 RMS(Int)=    0.0000022509
 Iter   2:  RMS(Cart)=    0.0000000107 RMS(Int)=    0.0000000067
done
Storing new coordinates                 .... done

                                .--------------------.
          ----------------------|Geometry convergence|---------------------
          Item                value                 Tolerance   Converged
          -----------------------------------------------------------------
          Energy change      -0.00000082            0.00000100      YES
          RMS gradient        0.00001583            0.00003000      YES
          MAX gradient        0.00005424            0.00010000      YES
          RMS step            0.00088301            0.00060000      NO
          MAX step            0.00253042            0.00100000      NO
          ....................................................
          Max(Bonds)      0.0002      Max(Angles)    0.02
          Max(Dihed)        0.14      Max(Improp)    0.00
          -----------------------------------------------------------------

       The energies and gradients are converged
       and the convergence on bond distances, angles, dihedrals and impropers
       is acceptable.
       Convergence will therefore be signaled now


                    ***********************HURRAY********************
                    ***        THE OPTIMIZATION HAS CONVERGED     ***
                    *************************************************


    ---------------------------------------------------------------------------
                         Redundant Internal Coordinates

                          --- Optimized Parameters ---  
                            (Angstroem and degrees)

        Definition                    OldVal   dE/dq     Step     FinalVal
    ----------------------------------------------------------------------------
     1. B(C   1,C   0)                1.5082  0.000013 -0.0000    1.5082   
     2. B(N   2,C   1)                1.5019 -0.000022  0.0000    1.5019   
     3. B(C   3,N   2)                1.4965  0.000005 -0.0000    1.4965   
     4. B(C   4,C   3)                1.5025  0.000005 -0.0000    1.5024   
     5. B(C   5,C   4)                1.4666  0.000042 -0.0001    1.4665   
     6. B(O   6,C   5)                1.4146 -0.000038  0.0001    1.4147   
     7. B(O   6,C   4)                1.4023  0.000005 -0.0000    1.4023   
     8. B(H   7,C   0)                1.0906 -0.000006  0.0000    1.0906   
     9. B(H   8,C   0)                1.0926  0.000006 -0.0000    1.0926   
    10. B(H   9,C   0)                1.0925 -0.000001 -0.0000    1.0924   
    11. B(H  10,C   1)                1.0908  0.000015 -0.0002    1.0906   
    12. B(H  11,C   1)                1.0908  0.000001 -0.0001    1.0907   
    13. B(H  12,N   2)                1.0228 -0.000005 -0.0000    1.0228   
    14. B(H  13,N   2)                1.0228 -0.000007 -0.0000    1.0227   
    15. B(H  14,C   3)                1.0916  0.000004 -0.0000    1.0916   
    16. B(H  15,C   3)                1.0905 -0.000001 -0.0001    1.0904   
    17. B(H  16,C   4)                1.0907  0.000001 -0.0000    1.0907   
    18. B(H  17,C   5)                1.0883  0.000002 -0.0000    1.0883   
    19. B(H  18,C   5)                1.0858  0.000000  0.0000    1.0858   
    20. A(H   7,C   0,H   9)          107.39  0.000014   -0.01    107.37   
    21. A(C   1,C   0,H   9)          112.00  0.000010   -0.00    111.99   
    22. A(C   1,C   0,H   8)          111.96 -0.000041    0.02    111.97   
    23. A(C   1,C   0,H   7)          108.94 -0.000012    0.00    108.94   
    24. A(H   8,C   0,H   9)          109.02  0.000010    0.00    109.02   
    25. A(H   7,C   0,H   8)          107.34  0.000022   -0.01    107.33   
    26. A(C   0,C   1,H  10)          112.23 -0.000023    0.02    112.25   
    27. A(H  10,C   1,H  11)          108.27  0.000001   -0.00    108.27   
    28. A(C   0,C   1,N   2)          111.12 -0.000004    0.00    111.12   
    29. A(N   2,C   1,H  11)          106.30  0.000014   -0.02    106.28   
    30. A(N   2,C   1,H  10)          106.30  0.000010    0.00    106.30   
    31. A(C   0,C   1,H  11)          112.27  0.000005   -0.01    112.27   
    32. A(H  12,N   2,H  13)          105.56  0.000013   -0.00    105.55   
    33. A(C   3,N   2,H  13)          109.40 -0.000017    0.01    109.40   
    34. A(C   1,N   2,H  13)          108.64 -0.000020    0.01    108.65   
    35. A(C   3,N   2,H  12)          108.87 -0.000037    0.02    108.88   
    36. A(C   1,N   2,H  12)          109.10  0.000003   -0.01    109.09   
    37. A(C   1,N   2,C   3)          114.87  0.000054   -0.02    114.85   
    38. A(C   4,C   3,H  15)          110.37  0.000021   -0.02    110.35   
    39. A(N   2,C   3,H  15)          107.73  0.000017   -0.02    107.72   
    40. A(C   4,C   3,H  14)          111.64 -0.000002    0.01    111.65   
    41. A(N   2,C   3,H  14)          107.05  0.000011    0.01    107.05   
    42. A(N   2,C   3,C   4)          111.15 -0.000039    0.02    111.17   
    43. A(H  14,C   3,H  15)          108.75 -0.000008   -0.00    108.75   
    44. A(C   5,C   4,H  16)          118.93  0.000006    0.00    118.93   
    45. A(C   3,C   4,H  16)          115.98 -0.000029    0.01    115.99   
    46. A(C   5,C   4,O   6)           59.03 -0.000026    0.01     59.04   
    47. A(C   3,C   4,O   6)          113.59  0.000022   -0.00    113.59   
    48. A(O   6,C   4,H  16)          114.90  0.000011   -0.01    114.89   
    49. A(C   3,C   4,C   5)          120.91  0.000024   -0.01    120.90   
    50. A(C   4,C   5,O   6)           58.22  0.000000   -0.00     58.22   
    51. A(H  17,C   5,H  18)          115.96  0.000002   -0.00    115.96   
    52. A(O   6,C   5,H  18)          115.45  0.000003   -0.01    115.44   
    53. A(C   4,C   5,H  18)          118.97 -0.000004    0.01    118.98   
    54. A(O   6,C   5,H  17)          115.10  0.000002   -0.00    115.10   
    55. A(C   4,C   5,H  17)          119.98 -0.000003    0.00    119.99   
    56. A(C   4,O   6,C   5)           62.75  0.000026   -0.01     62.74   
    57. D(H  10,C   1,C   0,H   9)    179.43 -0.000007    0.11    179.55   
    58. D(H  11,C   1,C   0,H   8)   -179.99 -0.000005    0.11   -179.88   
    59. D(N   2,C   1,C   0,H   9)    -61.70 -0.000013    0.13    -61.57   
    60. D(H  11,C   1,C   0,H   9)     57.20  0.000005    0.10     57.30   
    61. D(N   2,C   1,C   0,H   8)     61.11 -0.000023    0.14     61.25   
    62. D(H  10,C   1,C   0,H   7)     60.79 -0.000023    0.13     60.92   
    63. D(H  10,C   1,C   0,H   8)    -57.76 -0.000017    0.12    -57.64   
    64. D(N   2,C   1,C   0,H   7)    179.66 -0.000029    0.14    179.81   
    65. D(H  11,C   1,C   0,H   7)    -61.44 -0.000011    0.12    -61.32   
    66. D(H  12,N   2,C   1,H  10)    179.74 -0.000009    0.02    179.76   
    67. D(C   3,N   2,C   1,H  11)     57.47 -0.000004    0.01     57.48   
    68. D(H  12,N   2,C   1,C   0)     57.37  0.000015   -0.01     57.36   
    69. D(C   3,N   2,C   1,C   0)    179.89  0.000008   -0.01    179.89   
    70. D(H  12,N   2,C   1,H  11)    -65.06  0.000003    0.01    -65.05   
    71. D(H  13,N   2,C   1,H  11)   -179.67 -0.000003    0.02   -179.65   
    72. D(H  13,N   2,C   1,H  10)     65.13 -0.000016    0.03     65.16   
    73. D(H  13,N   2,C   1,C   0)    -57.24  0.000009   -0.00    -57.24   
    74. D(C   3,N   2,C   1,H  10)    -57.73 -0.000016    0.02    -57.71   
    75. D(H  15,C   3,N   2,H  12)     63.51  0.000000    0.09     63.60   
    76. D(H  15,C   3,N   2,C   1)    -59.14 -0.000014    0.10    -59.04   
    77. D(H  14,C   3,N   2,H  13)    -64.79 -0.000009    0.10    -64.69   
    78. D(H  14,C   3,N   2,H  12)   -179.68  0.000005    0.09   -179.59   
    79. D(H  14,C   3,N   2,C   1)     57.67 -0.000009    0.10     57.77   
    80. D(C   4,C   3,N   2,H  13)     57.36 -0.000028    0.13     57.49   
    81. D(C   4,C   3,N   2,H  12)    -57.52 -0.000014    0.12    -57.41   
    82. D(H  15,C   3,N   2,H  13)    178.39 -0.000014    0.10    178.50   
    83. D(C   4,C   3,N   2,C   1)    179.82 -0.000028    0.13    179.95   
    84. D(O   6,C   4,C   3,N   2)    158.48 -0.000006    0.03    158.51   
    85. D(C   5,C   4,C   3,H  15)    -27.86 -0.000000    0.05    -27.81   
    86. D(C   5,C   4,C   3,H  14)   -148.94 -0.000003    0.05   -148.89   
    87. D(C   5,C   4,C   3,N   2)     91.61  0.000010    0.03     91.64   
    88. D(H  16,C   4,C   3,H  15)    175.39 -0.000006    0.05    175.43   
    89. D(H  16,C   4,C   3,H  14)     54.31 -0.000009    0.05     54.36   
    90. D(H  16,C   4,C   3,N   2)    -65.14  0.000004    0.03    -65.11   
    91. D(O   6,C   4,C   3,H  15)     39.00 -0.000016    0.05     39.06   
    92. D(O   6,C   4,C   3,H  14)    -82.07 -0.000019    0.06    -82.02   
    93. D(H  18,C   5,C   4,H  16)      0.32  0.000006   -0.01      0.31   
    94. D(H  18,C   5,C   4,C   3)   -155.77  0.000008   -0.01   -155.78   
    95. D(H  17,C   5,C   4,H  16)    154.10 -0.000004    0.01    154.12   
    96. D(H  17,C   5,C   4,O   6)   -102.63 -0.000004    0.01   -102.63   
    97. D(H  17,C   5,C   4,C   3)     -1.98 -0.000002    0.01     -1.97   
    98. D(H  18,C   5,C   4,O   6)    103.58  0.000006   -0.01    103.57   
    99. D(O   6,C   5,C   4,H  16)   -103.26  0.000000    0.00   -103.26   
   100. D(O   6,C   5,C   4,C   3)    100.65  0.000002    0.00    100.65   
   101. D(C   4,O   6,C   5,H  18)   -109.64  0.000006   -0.01   -109.65   
   102. D(C   4,O   6,C   5,H  17)    111.03 -0.000004    0.01    111.04   
   103. D(C   5,O   6,C   4,H  16)    110.08 -0.000005    0.01    110.09   
   104. D(C   5,O   6,C   4,C   3)   -113.05 -0.000013    0.01   -113.04   
    ----------------------------------------------------------------------------
                 *******************************************************
                 *** FINAL ENERGY EVALUATION AT THE STATIONARY POINT ***
                 ***               (AFTER    2 CYCLES)               ***
                 *******************************************************


           ************************************************************
           *        Program running with 8 parallel MPI-processes     *
           *              working on a common directory               *
           ************************************************************
           ************************************************************
           *              Shut down parallel processing               *
           ************************************************************


           ************************************************************
           *        Program running with 8 parallel MPI-processes     *
           *              working on a common directory               *
           ************************************************************
------------
SCF SETTINGS
------------
Hamiltonian:
 Density Functional     Method          .... DFT(GTOs)
 Exchange Functional    Exchange        .... PBE
   PBE kappa parameter  XKappa          ....  0.804000
 Correlation Functional Correlation     .... PBE
 LDA part of GGA corr.  LDAOpt          .... PW91-LDA
 Gradients option       PostSCFGGA      .... off
 Hybrid DFT is turned on
   Fraction HF Exchange ScalHFX         ....  0.250000
   Scaling of DF-GGA-X  ScalDFX         ....  0.750000
   Scaling of DF-GGA-C  ScalDFC         ....  1.000000
   Scaling of DF-LDA-C  ScalLDAC        ....  1.000000
   Perturbative correction              ....  0.000000
   NL short-range parameter             ....  6.900000


General Settings:
 Integral files         IntName         .... 5326_+
 Hartree-Fock type      HFTyp           .... RHF
 Total Charge           Charge          ....    1
 Multiplicity           Mult            ....    1
 Number of Electrons    NEL             ....   56
 Basis Dimension        Dim             ....  289
 Nuclear Repulsion      ENuc            ....    319.9406889378 Eh

Convergence Acceleration:
 DIIS                   CNVDIIS         .... on
   Start iteration      DIISMaxIt       ....    12
   Startup error        DIISStart       ....  0.200000
   # of expansion vecs  DIISMaxEq       ....     5
   Bias factor          DIISBfac        ....   1.050
   Max. coefficient     DIISMaxC        ....  10.000
 Newton-Raphson         CNVNR           .... off
 SOSCF                  CNVSOSCF        .... on
   Start iteration      SOSCFMaxIt      ....   150
   Startup grad/error   SOSCFStart      ....  0.003300
 Level Shifting         CNVShift        .... on
   Level shift para.    LevelShift      ....    0.2500
   Turn off err/grad.   ShiftErr        ....    0.0010
 Zerner damping         CNVZerner       .... off
 Static damping         CNVDamp         .... on
   Fraction old density DampFac         ....    0.7000
   Max. Damping (<1)    DampMax         ....    0.9800
   Min. Damping (>=0)   DampMin         ....    0.0000
   Turn off err/grad.   DampErr         ....    0.1000
 Fernandez-Rico         CNVRico         .... off

SCF Procedure:
 Maximum # iterations   MaxIter         ....   125
 SCF integral mode      SCFMode         .... Direct
   Integral package                     .... LIBINT
 Reset frequeny         DirectResetFreq ....    20
 Integral Threshold     Thresh          ....  2.500e-11 Eh
 Primitive CutOff       TCut            ....  2.500e-12 Eh

Convergence Tolerance:
 Convergence Check Mode ConvCheckMode   .... Total+1el-Energy
 Energy Change          TolE            ....  1.000e-08 Eh
 1-El. energy change                    ....  1.000e-05 Eh
 Orbital Gradient       TolG            ....  1.000e-05
 Orbital Rotation angle TolX            ....  1.000e-05
 DIIS Error             TolErr          ....  5.000e-07


Diagonalization of the overlap matrix:
Smallest eigenvalue                        ... 1.615e-04
Time for diagonalization                   ...    0.474 sec
Threshold for overlap eigenvalues          ... 1.000e-08
Number of eigenvalues below threshold      ... 0
Time for construction of square roots      ...    0.031 sec
Total time needed                          ...    0.505 sec

-------------------
DFT GRID GENERATION
-------------------

General Integration Accuracy     IntAcc      ...  4.340
Radial Grid Type                 RadialGrid  ... Gauss-Chebyshev
Angular Grid (max. acc.)         AngularGrid ... Lebedev-194
Angular grid pruning method      GridPruning ... 3 (G Style)
Weight generation scheme         WeightScheme... Becke
Basis function cutoff            BFCut       ...    1.0000e-11
Integration weight cutoff        WCut        ...    1.0000e-14
Grids for H and He will be reduced by one unit

# of grid points (after initial pruning)     ...  41422 (   0.0 sec)
# of grid points (after weights+screening)   ...  38018 (   0.3 sec)
nearest neighbour list constructed           ...    0.0 sec
Grid point re-assignment to atoms done       ...    0.0 sec
Grid point division into batches done        ...    0.1 sec
Reduced shell lists constructed in    0.2 sec

Total number of grid points                  ...    38018
Total number of batches                      ...      602
Average number of points per batch           ...       63
Average number of grid points per atom       ...     2001
Average number of shells per batch           ...    92.26 (73.81%)
Average number of basis functions per batch  ...   211.74 (73.27%)
Average number of large shells per batch     ...    74.77 (81.04%)
Average number of large basis fcns per batch ...   171.34 (80.92%)
Maximum spatial batch extension              ...   2.41,  2.10,  2.19 au
Average spatial batch extension              ...   0.14,  0.14,  0.14 au

Time for grid setup =    1.106 sec

--------------
SCF ITERATIONS
--------------
ITER       Energy         Delta-E        Max-DP      RMS-DP      [F,P]     Damp
               ***  Starting incremental Fock matrix formation  ***
                      *** Initiating the SOSCF procedure ***
                      *** Re-Reading the Fockian *** 
                      *** Removing any level shift *** 
ITER      Energy       Delta-E        Grad      Rot      Max-DP    RMS-DP
  0   -327.18598667 -327.1859866748  0.000224  0.000224  0.000384  0.000008
               *** Restarting incremental Fock matrix formation ***
  1   -327.18599123  -0.0000045572  0.000071  0.000105  0.000151  0.000004
  2   -327.18599167  -0.0000004366  0.000010  0.000021  0.000075  0.000001
  3   -327.18599167   0.0000000030  0.000017  0.000010  0.000050  0.000001
                  ***Gradient check signals convergence***
              ***Rediagonalizing the Fockian in SOSCF/NRSCF***

               *****************************************************
               *                     SUCCESS                       *
               *           SCF CONVERGED AFTER   4 CYCLES          *
               *****************************************************

Setting up the final grid:

General Integration Accuracy     IntAcc      ...  5.010
Radial Grid Type                 RadialGrid  ... Gauss-Chebyshev
Angular Grid (max. acc.)         AngularGrid ... Lebedev-434
Angular grid pruning method      GridPruning ... 3 (G Style)
Weight generation scheme         WeightScheme... Becke
Basis function cutoff            BFCut       ...    1.0000e-11
Integration weight cutoff        WCut        ...    1.0000e-14
Grids for H and He will be reduced by one unit

# of grid points (after initial pruning)     ... 155226 (   0.0 sec)
# of grid points (after weights+screening)   ... 140794 (   6.3 sec)
nearest neighbour list constructed           ...    0.0 sec
Grid point re-assignment to atoms done       ...    0.1 sec
Grid point division into batches done        ...    1.7 sec
Reduced shell lists constructed in    2.2 sec

Total number of grid points                  ...   140794
Total number of batches                      ...     2210
Average number of points per batch           ...       63
Average number of grid points per atom       ...     7410
Average number of shells per batch           ...    92.23 (73.78%)
Average number of basis functions per batch  ...   212.54 (73.54%)
Average number of large shells per batch     ...    74.45 (80.72%)
Average number of large basis fcns per batch ...   171.59 (80.73%)
Maximum spatial batch extension              ...   2.45,  2.32,  2.46 au
Average spatial batch extension              ...   0.09,  0.09,  0.10 au

Final grid set up in    9.9 sec
Final integration                            ... done (   1.3 sec)
Change in XC energy                          ...     0.000160541
Integrated number of electrons               ...    56.000030188
Previous integrated no of electrons          ...    55.998386873
Total Energy       :         -327.18583114 Eh           -8903.17909 eV
  Last Energy change         ...   -1.4708e-08  Tolerance :   1.0000e-08
  Last MAX-Density change    ...    9.7344e-06  Tolerance :   1.0000e-07
             **** THE GBW FILE WAS UPDATED (5326_+.gbw) ****
             **** DENSITY FILE WAS UPDATED (5326_+.scfp.tmp) ****
             **** ENERGY FILE WAS UPDATED (5326_+.en.tmp) ****
Total SCF time: 0 days 0 hours 0 min 58 sec 
           ************************************************************
           *              Shut down parallel processing               *
           ************************************************************

-------------------------   --------------------
FINAL SINGLE POINT ENERGY      -327.185831139068
-------------------------   --------------------

                                *** OPTIMIZATION RUN DONE ***

                            ***************************************
                            *     ORCA property calculations      *
                            ***************************************

                                    ---------------------
                                    Active property flags
                                    ---------------------




           ************************************************************
           *        Program running with 8 parallel MPI-processes     *
           *              working on a common directory               *
           ************************************************************

-------------------------------------------------------------------------------
                               ORCA SCF HESSIAN
-------------------------------------------------------------------------------

Hessian of the Kohn-Sham DFT energy:
Kohn-Sham wavefunction type                      ... RKS
Hartree-Fock exchange scaling                    ...    0.250
Number of operators                              ...    1
Number of atoms                                  ...   19
Basis set dimensions                             ...  289
Integral neglect threshold                       ... 2.5e-11
Integral primitive cutoff                        ... 2.5e-12

Setting up DFT Hessian calculations              ... 
Electron density on the grid                     ... found on disk
Electron density on the final grid               ... found on disk
Building xc-kernel on the grid                   ... done   (      0.0 sec)
Building xc-kernel on the final grid             ... done   (      0.1 sec)
                                                     done   (     38.4 sec)

Nuclear repulsion Hessian                        ... done   (      0.0 sec)

----------------------------------------------
Forming right-hand sides of CP-SCF equations     ...
----------------------------------------------
One electron integral derivatives                ... done   (      0.3 sec)
Transforming the overlap derivative matrices     ... done   (      1.3 sec)
Making the Q(x) pseudodensities                  ... done   (      0.7 sec)
Adding the E*S(x)*S(y) terms to the Hessian      ... done   (      0.0 sec)
Calculating energy weighted overlap derivatives  ... done   (      0.0 sec)
Two electron integral derivatives                ... done   (     58.7 sec)
Exchange-correlation integral derivatives        ... done   (     72.4 sec)
tr(F(y)Q(x)) contribution to the Hessian         ... done   (      0.0 sec)
Response fock operator R(S(x))                   ... done   (    211.1 sec)
[...]
     18       0.001164   0.007127   0.000533  -0.000005  -0.000049  -0.000002
     19       0.001946   0.020430   0.000034  -0.000009  -0.000003   0.000023
     20      -0.005213  -0.041941   0.000475  -0.000001   0.000389   0.000202
     21      -0.035595   0.001936   0.004839   0.164749  -0.018572   0.041345
     22      -0.075613   0.005487   0.010362   0.249076  -0.028173   0.063332
     23       0.065327  -0.004954  -0.009023   0.317306  -0.035444   0.077400
     24      -0.035700   0.002808   0.002720  -0.626910   0.013699  -0.015579
     25       0.219994  -0.015629  -0.027380  -0.067811   0.002569  -0.004417
     26      -0.015314   0.002963   0.002095   0.106143  -0.002043   0.003128
     27       0.200187  -0.013458  -0.023935   0.287769  -0.005540   0.008573
     28       0.091879  -0.005537  -0.012810  -0.555809   0.013040  -0.022805
     29      -0.038366   0.001352   0.004440   0.020129  -0.000138   0.001455
     30       0.552336  -0.042907   0.004563  -0.025075  -0.127870   0.290613
     31       0.242398  -0.021403   0.007758   0.048441   0.245414  -0.560380
     32       0.045096  -0.017379   0.002752  -0.002525  -0.011644   0.021933
     33      -0.083353   0.001718   0.004524   0.055843   0.274445  -0.639031
     34       0.589479  -0.046881   0.007740   0.005886   0.028035  -0.065956
     35       0.103701  -0.030031   0.002525  -0.010383  -0.049832   0.112193
     36      -0.010516  -0.009257  -0.640892   0.001827  -0.003689  -0.010084
     37      -0.021757  -0.001352  -0.276378  -0.003267   0.008160   0.018100
     38       0.008065   0.025469   0.112008  -0.002974   0.004876  -0.001267
     39      -0.010825   0.012180   0.123504  -0.004478   0.005020   0.019140
     40      -0.019437  -0.014915  -0.690167  -0.000050   0.000698   0.001323
     41       0.001787   0.026654   0.038133  -0.002451   0.002923  -0.004919
     42       0.223358  -0.123456   0.003199   0.002324   0.317921   0.138939
     43       0.096527  -0.070103   0.006786  -0.004615  -0.640465  -0.279772
     44      -0.112537  -0.012000  -0.008865   0.000360  -0.015879  -0.005091
     45      -0.047298   0.036436   0.002175  -0.004721  -0.561971  -0.241308
     46       0.253572  -0.076221   0.007446  -0.000454  -0.051139  -0.021956
     47      -0.055095   0.108310  -0.010929   0.001099   0.072965   0.033055
     48      -0.004569  -0.029342  -0.000386   0.001765   0.041395   0.013004
     49      -0.008267  -0.125348  -0.006815   0.000200   0.003400   0.000775
     50      -0.012177  -0.185609   0.000496  -0.000019   0.000269  -0.000497
     51       0.009258   0.090218  -0.002431  -0.000145   0.004279   0.002546
     52       0.058176   0.607407  -0.007547   0.000016  -0.000263  -0.000108
     53       0.020364   0.243498  -0.007472  -0.000076   0.001947   0.001122
     54      -0.054474  -0.554577   0.008423   0.000075  -0.002006  -0.001187
     55       0.029998   0.303012  -0.005730   0.000118  -0.002598  -0.001695
     56      -0.013264  -0.147501   0.003854   0.000060  -0.000837  -0.000851
                 48         49         50         51         52         53    
      0       0.000135  -0.000857  -0.074981   0.040119   0.020576  -0.025672
      1      -0.000098   0.000502   0.039829   0.065537  -0.013185   0.016211
      2      -0.000024   0.000006   0.005854   0.049067  -0.003013   0.003597
      3      -0.000060   0.000849   0.034355   0.006622   0.043849  -0.062178
      4       0.000043  -0.001078  -0.019821   0.004704  -0.024744   0.034791
      5      -0.000015   0.000128  -0.003138  -0.000525  -0.004116   0.005818
      6      -0.000204   0.000839  -0.001280  -0.000324   0.000784   0.003335
      7       0.000304   0.000051   0.000720  -0.000252  -0.000203  -0.001675
      8       0.000071   0.000292   0.000126  -0.000772  -0.000177  -0.000425
      9       0.002833  -0.014524  -0.001873  -0.000395  -0.069956  -0.050037
     10      -0.002251   0.008374   0.000528   0.000201   0.030823   0.022262
     11      -0.000084   0.000030   0.000246  -0.000119   0.007691   0.005478
     12      -0.014321   0.082343  -0.001744  -0.000009  -0.013104  -0.008490
     13      -0.003844   0.008151  -0.000115   0.000013  -0.000732  -0.000539
     14      -0.003910   0.000912  -0.000003   0.000014   0.000120   0.000055
     15      -0.041361  -0.014018   0.000191  -0.000026   0.002253   0.001576
     16       0.045915   0.010162  -0.000061   0.000014   0.000344   0.000439
     17       0.004252  -0.001275   0.000041  -0.000003   0.000687   0.000555
     18      -0.000631  -0.000078   0.000011   0.000001   0.000181   0.000123
     19       0.000847  -0.001026   0.000017  -0.000002   0.000184   0.000126
     20       0.001141  -0.000419   0.000014  -0.000004   0.000152   0.000099
     21       0.000122   0.000152  -0.012005  -0.330132   0.010843  -0.012540
     22       0.000079   0.000711   0.019350  -0.495196   0.008438  -0.008959
     23       0.000159   0.001187   0.014246  -0.663414   0.013829  -0.015108
     24      -0.001142   0.006940   0.624045  -0.298664  -0.171518   0.215182
     25      -0.000166   0.000984   0.081531  -0.023236  -0.023041   0.029147
     26       0.000194  -0.001195  -0.107138   0.061603   0.031120  -0.039993
     27      -0.000631   0.003634   0.281611   0.148906  -0.084678   0.105289
     28       0.001281  -0.007392  -0.575203  -0.266186   0.172120  -0.214588
     29      -0.000040   0.000345   0.022796   0.019702  -0.009110   0.012128
     30       0.000326  -0.005999  -0.132613   0.017715  -0.165314   0.233033
     31      -0.000627   0.011875   0.270821  -0.036564   0.335079  -0.475130
     32       0.000070  -0.000987  -0.010016   0.002411  -0.019480   0.025517
     33       0.000575  -0.005625  -0.276682  -0.090651  -0.350696   0.502557
     34       0.000196  -0.000960  -0.035180  -0.011680  -0.043786   0.063996
     35       0.000056   0.000460   0.047399   0.017377   0.067755  -0.093894
     36       0.000744  -0.000902   0.005665   0.000532  -0.000847  -0.014207
     37      -0.003426   0.002893  -0.011026  -0.000256   0.003986   0.021054
     38       0.000685   0.001052  -0.000248  -0.001933   0.010334  -0.001960
     39       0.001206  -0.007248   0.012115   0.000524  -0.007236  -0.026183
     40      -0.000235  -0.000160   0.001148   0.000435  -0.000971   0.000204
     41      -0.001201   0.004663  -0.001494  -0.002641  -0.010970   0.004859
     42      -0.013672   0.060251   0.003893   0.001653   0.205024   0.148520
     43       0.029769  -0.124103  -0.008498  -0.003501  -0.438054  -0.318246
     44       0.000160   0.000486  -0.000477   0.000377  -0.013708  -0.007968
     45      -0.016958   0.104728   0.018855   0.002353   0.621268   0.445005
     46      -0.000354   0.011397   0.002140   0.000217   0.071600   0.051869
     47       0.003834  -0.017323  -0.002217   0.000258  -0.076940  -0.056925
     48       0.197651  -0.951929   0.019285   0.000079   0.144507   0.094877
     49       0.019791  -0.106976   0.002106  -0.000003   0.016954   0.011384
     50      -0.000016  -0.006232   0.000074  -0.000053   0.003625   0.002911
     51       0.749549   0.181953  -0.001490   0.000425  -0.011980  -0.007790
     52      -0.096530  -0.022413   0.000161  -0.000049   0.000989   0.000624
     53       0.224511   0.061449  -0.000659   0.000114  -0.006157  -0.004120
     54      -0.276083  -0.037356  -0.000165  -0.000083  -0.007959  -0.006631
     55      -0.441273  -0.061410  -0.000217  -0.000144  -0.014110  -0.011888
     56      -0.250138  -0.038929   0.000014  -0.000108  -0.006561  -0.005820
                  54         55         56    
      0      -0.000038   0.000314  -0.000691
      1      -0.000007   0.000587   0.000351
      2      -0.000007  -0.000215   0.000062
      3      -0.000081  -0.001133   0.002610
      4       0.000098  -0.001807  -0.001330
      5       0.000014  -0.000466  -0.000247
      6      -0.000041  -0.027098   0.071208
      7       0.000038  -0.051392  -0.038792
      8      -0.000061   0.007630  -0.007087
      9      -0.001896  -0.000674   0.002216
     10       0.001274  -0.001500  -0.001296
     11       0.000190   0.001025  -0.000209
     12      -0.004885   0.000509  -0.000604
     13      -0.000208   0.000337   0.000145
     14       0.000310   0.000161   0.000052
     15      -0.077051  -0.000138  -0.000095
     16      -0.047698   0.000130   0.000044
     17      -0.044221   0.000055   0.000005
     18       0.000985  -0.000054   0.000038
     19       0.000563  -0.000089  -0.000031
     20       0.000417  -0.000080   0.000016
     21       0.000051  -0.000175  -0.000225
     22       0.000096  -0.000498   0.000153
     23       0.000051   0.000999  -0.000021
     24       0.000339  -0.002929   0.003875
     25       0.000036  -0.000189  -0.000265
     26      -0.000078  -0.000525   0.000286
     27       0.000047   0.001246   0.002162
     28      -0.000171  -0.002380  -0.002910
     29       0.000054  -0.000907  -0.000842
     30       0.000547  -0.004845  -0.009218
     31      -0.001178   0.015262   0.019666
     32      -0.000054   0.002866   0.002204
     33       0.000780   0.015955  -0.021890
     34       0.000212   0.003849  -0.002808
     35      -0.000025   0.000578   0.001003
     36      -0.000533  -0.316609  -0.292587
     37      -0.001211   0.632805   0.638040
     38       0.001327  -0.003176  -0.006421
     39       0.000254   0.691574  -0.691039
     40      -0.000312   0.078136  -0.102395
     41      -0.000697  -0.102390   0.103838
     42       0.004929  -0.005144  -0.008949
     43      -0.007608   0.013593   0.017645
     44       0.000778  -0.003682  -0.002790
     45       0.016458   0.013000  -0.019096
     46       0.003292   0.003029  -0.002150
     47      -0.000572  -0.005392   0.005642
     48       0.052657  -0.003244   0.003630
     49      -0.000963  -0.000280  -0.000343
     50       0.000714   0.000491  -0.000777
     51       0.543049   0.001985   0.002316
     52      -0.078295  -0.000230  -0.000145
     53       0.154764   0.000114   0.000005
     54       0.366694  -0.000052  -0.000033
     55       0.631215  -0.000721  -0.000110
     56       0.358853  -0.000401   0.000128


-----------
IR SPECTRUM
-----------

 Mode    freq (cm**-1)   T**2         TX         TY         TZ
-------------------------------------------------------------------
   6:        57.31    5.803676  (  2.055012  -1.217028   0.315347)
   7:        71.99    1.376334  (  1.063783  -0.494665   0.002707)
   8:       118.25    6.408108  ( -2.478020  -0.414074   0.309950)
   9:       139.65    4.613684  (  0.736177   1.968405   0.443972)
  10:       249.70    0.590480  (  0.694778  -0.328189   0.007506)
  11:       298.12    0.533780  (  0.358019  -0.403309  -0.492894)
  12:       324.77    2.463729  (  0.155292   0.923549   1.259631)
  13:       423.18    0.699157  (  0.116923   0.061687  -0.825640)
  14:       492.06   23.481551  (  0.324486   0.459000   4.813063)
  15:       778.65   13.874264  ( -3.278272   1.562105   0.828872)
  16:       815.63    8.061062  (  0.671632   1.077864  -2.539327)
  17:       847.10   19.641677  (  0.593044  -2.721502   3.447231)
  18:       892.70   10.807530  (  0.371090   1.142451  -3.060168)
  19:       912.19    0.315598  ( -0.467446   0.310121  -0.030268)
  20:       944.53    8.288877  ( -1.898569   0.992462   1.923365)
  21:      1000.31   20.296299  (  0.613016   1.678882   4.135440)
  22:      1017.96   26.771945  ( -0.309022  -2.643142   4.437370)
  23:      1047.48   17.992545  ( -0.995560  -1.658363  -3.775081)
  24:      1065.92    2.986672  (  0.534656   1.169049  -1.155049)
  25:      1109.82   12.038659  (  1.593785   2.183245   2.175304)
  26:      1149.09    4.770482  (  0.168762  -0.138231  -2.173222)
  27:      1177.27    0.883199  (  0.238636  -0.145209   0.897311)
  28:      1182.36    1.670958  (  1.082937   0.603004   0.366867)
  29:      1195.08    0.476629  ( -0.194614   0.207450  -0.629062)
  30:      1251.50    1.798561  ( -0.923577   0.896956  -0.375549)
  31:      1297.98   12.515106  ( -0.517715   2.856679  -2.021501)
  32:      1319.52    8.682079  ( -0.285378  -0.944405  -2.776461)
  33:      1353.96    8.683199  (  2.365981  -1.375803   1.092016)
  34:      1395.01    2.829290  (  1.577548  -0.443315  -0.379610)
  35:      1401.33    8.333063  ( -0.568681  -0.225776   2.821115)
  36:      1424.83   87.831489  (  0.407015   0.442176   9.352556)
  37:      1428.58   27.175495  ( -0.362750  -1.713995  -4.909799)
  38:      1460.35    3.294911  ( -0.256239   0.964005  -1.516557)
  39:      1481.09    8.961092  (  1.146280   1.410955   2.378306)
  40:      1488.46    9.608414  ( -2.965170   0.618784  -0.658243)
  41:      1488.95    9.456304  ( -2.083752   2.025823   1.005148)
  42:      1506.55   17.905176  (  1.991263   3.666252  -0.706149)
  43:      1531.46    5.489044  ( -1.480517  -0.722956   1.665667)
  44:      1654.79   39.614728  ( -2.734863  -5.605086   0.847503)
  45:      3059.95    3.251213  (  0.877170   1.509270   0.451541)
  46:      3096.01    1.806958  ( -0.252897   0.089421   1.317196)
  47:      3100.84    1.986626  (  0.427085   1.124107  -0.735260)
  48:      3109.60    9.165084  ( -2.328596   1.607216  -1.076839)
  49:      3115.14    6.923441  (  1.973959   0.989154  -1.431258)
  50:      3130.81    2.992931  ( -1.519313   0.804822   0.192042)
  51:      3153.63    0.810778  (  0.259637   0.526525  -0.682743)
  52:      3160.26    0.347732  (  0.446120  -0.129939   0.363077)
  53:      3161.83    1.949717  ( -1.146896   0.732875   0.311836)
  54:      3210.88    3.313710  ( -1.512193  -0.679424  -0.751908)
  55:      3431.30   29.838345  (  2.799901   4.632702  -0.732786)
  56:      3481.00   56.508896  ( -6.568043   3.545839   0.892597)

The first frequency considered to be a vibration is 6
The total number of vibrations considered is 51


--------------------------
THERMOCHEMISTRY AT 298.15K
--------------------------

Temperature         ... 298.15 K
Pressure            ... 1.00 atm
Total Mass          ... 102.16 AMU

Throughout the following assumptions are being made:
  (1) The electronic state is orbitally nondegenerate
  (2) There are no thermally accessible electronically excited states
  (3) Hindered rotations indicated by low frequency modes) are not
      treated as such but are treated as vibrations and this may
      case some error
  (4) All equations used are the standard statistical mechanics
      equations for an ideal gas
  (5) All vibrations are strinctly harmonic


------------
INNER ENERGY
------------

The inner energy is: U= E(el) + E(ZPE) + E(vib) + E(rot) + E(trans)
    E(el)   - is the total energy from the electronic structure calculation
              = E(kin-el) + E(nuc-el) + E(el-el) + E(nuc-nuc)
    E(ZPE)  - the the zero temperature vibrational energy from the frequency calculation
    E(vib)  - the the finite temperature correction to E(ZPE) due to population
              of excietd vibrational states
    E(rot)  - is the rotational thermal energy
    E(trans)- is the translational thermal energy

Summary of contributions to the inner energy U:
Electronic energy                ...   -327.18583114 Eh
Zero point energy                ...      0.17543418 Eh     110.09 kcal/mol
Thermal vibrational correction   ...      0.00549956 Eh       3.45 kcal/mol
Thermal rotational correction    ...      0.00141627 Eh       0.89 kcal/mol
Thermal translational correction ...      0.00141627 Eh       0.89 kcal/mol
-----------------------------------------------------------------------
Total thermal energy                   -327.00206485 Eh


Summary of corrections to the electronic energy:
(perhaps to be used in another calculation)
Total thermal correction                  0.00833210 Eh       5.23 kcal/mol
Non-thermal (ZPE) correction              0.17543418 Eh     110.09 kcal/mol
-----------------------------------------------------------------------
Total correction                          0.18376628 Eh     115.31 kcal/mol


--------
ENTHALPY
--------

The enthalpy is H = U + kB*T
                kB is Boltzmann's constant
Total free energy                 ...   -327.00206485 Eh 
Thermal Enthalpy correction       ...      0.00094421 Eh       0.59 kcal/mol
-----------------------------------------------------------------------
Total Enthalpy                    ...   -327.00112065 Eh


-------
ENTROPY
-------

The entropy contributions are T*S = T*(S(el)+S(vib)+S(rot)+S(trans)
     S(el)   - electronic entropy
     S(vib)  - vibrational entropy
     S(rot)  - rotational entropy
     S(trans)- translational entropy
The entropies will be listed as mutliplied by the temperature to get
units of energy

Electronic entropy                ...      0.00000000 Eh      0.00 kcal/mol
Vibrational entropy               ...      0.01064449 Eh      6.68 kcal/mol
Rotational entropy                ...      0.01225194 Eh      7.69 kcal/mol
Translational entropy             ...      0.01890147 Eh     11.86 kcal/mol
-----------------------------------------------------------------------
Final entropy term                ...      0.04179790 Eh     26.23 kcal/mol


CAUTION: The rotational entropy is not quite correctly treated here
         because it includes a symmetry number that is not yet correctly
         implemented in ORCA!
For a nonlinear molecule the correct rotational entropy is:
    S(rot) = R*(ln(qrot/sn)+1.5)
    R    = 8.31441 J/mol/K = 1.987191683e-3 kcal/mol/K
    qrot = 289201.0009636
    sn is the rotational symmetry number. We have assumed 3 here
       if it is different for your molecule then you should correct
       the printed rotational entropy by manually evaluating the equation
       as given above

For convenience we print out the resulting values for sn=1 - 12:
 sn= 1  qrot/sn=  289201.0010 T*S(rot)=     8.34 kcal/mol T*S(tot)=    26.88 kcal/mol
 sn= 2  qrot/sn=  144600.5005 T*S(rot)=     7.93 kcal/mol T*S(tot)=    26.47 kcal/mol
 sn= 3  qrot/sn=   96400.3337 T*S(rot)=     7.69 kcal/mol T*S(tot)=    26.23 kcal/mol
 sn= 4  qrot/sn=   72300.2502 T*S(rot)=     7.52 kcal/mol T*S(tot)=    26.06 kcal/mol
 sn= 5  qrot/sn=   57840.2002 T*S(rot)=     7.39 kcal/mol T*S(tot)=    25.93 kcal/mol
 sn= 6  qrot/sn=   48200.1668 T*S(rot)=     7.28 kcal/mol T*S(tot)=    25.82 kcal/mol
 sn= 7  qrot/sn=   41314.4287 T*S(rot)=     7.19 kcal/mol T*S(tot)=    25.73 kcal/mol
 sn= 8  qrot/sn=   36150.1251 T*S(rot)=     7.11 kcal/mol T*S(tot)=    25.65 kcal/mol
 sn= 9  qrot/sn=   32133.4446 T*S(rot)=     7.04 kcal/mol T*S(tot)=    25.58 kcal/mol
 sn=10  qrot/sn=   28920.1001 T*S(rot)=     6.97 kcal/mol T*S(tot)=    25.52 kcal/mol
 sn=11  qrot/sn=   26291.0001 T*S(rot)=     6.92 kcal/mol T*S(tot)=    25.46 kcal/mol
 sn=12  qrot/sn=   24100.0834 T*S(rot)=     6.87 kcal/mol T*S(tot)=    25.41 kcal/mol


-------------------
GIBBS FREE ENTHALPY
-------------------

The Gibbs free enthalpy is G = H - T*S

Total enthalpy                    ...   -327.00112065 Eh 
Total entropy correction          ...     -0.04179790 Eh    -26.23 kcal/mol
-----------------------------------------------------------------------
Final Gibbs free enthalpy         ...   -327.04291855 Eh

For completeness - the Gibbs free enthalpy minus the electronic energy
G-E(el)                           ...      0.14291259 Eh     89.68 kcal/mol


Timings for individual modules:

Sum of individual times         ...     2674.176 sec (=  44.570 min)
GTO integral calculation        ...        7.129 sec (=   0.119 min)   0.3 %
SCF iterations                  ...      239.558 sec (=   3.993 min)   9.0 %
SCF Gradient evaluation         ...       95.133 sec (=   1.586 min)   3.6 %
Geometry relaxation             ...        0.169 sec (=   0.003 min)   0.0 %
Analytical frequency calculation...     2332.188 sec (=  38.870 min)  87.2 %
                             ****ORCA TERMINATED NORMALLY****
TOTAL RUN TIME: 0 days 0 hours 44 minutes 35 seconds 868 msec
