
                                 *****************
                                 * O   R   C   A *
                                 *****************

           --- An Ab Initio, DFT and Semiempirical electronic structure package ---

                  #######################################################
                  #                        -***-                        #
                  #  Department of molecular theory and spectroscopy    #
                  #              Directorship: Frank Neese              #
                  # Max Planck Institute for Chemical Energy Conversion #
                  #                  D-45470 Muelheim/Ruhr              #
                  #                       Germany                       #
                  #                                                     #
                  #                  All rights reserved                #
                  #                        -***-                        #
                  #######################################################


                         Program Version 3.0.3 - RELEASE   -


 With contributions from (in alphabetic order):
   Ute Becker             : Parallelization
   Dmytro Bykov           : SCF Hessian
   Dmitry Ganyushin       : Spin-Orbit,Spin-Spin,Magnetic field MRCI
   Andreas Hansen         : Spin unrestricted coupled pair/coupled cluster methods
   Dimitrios Liakos       : Extrapolation schemes; parallel MDCI
   Robert Izsak           : Overlap fitted RIJCOSX, COSX-SCS-MP3
   Christian Kollmar      : KDIIS, OOCD, Brueckner-CCSD(T), CCSD density
   Simone Kossmann        : Meta GGA functionals, TD-DFT gradient, OOMP2, MP2 Hessian
   Taras Petrenko         : DFT Hessian,TD-DFT gradient, ASA and ECA modules, normal mode analysis, Resonance Raman, ABS, FL, XAS/XES, NRVS
   Christoph Reimann      : Effective Core Potentials
   Michael Roemelt        : Restricted open shell CIS
   Christoph Riplinger    : Improved optimizer, TS searches, QM/MM, DLPNO-CCSD
   Barbara Sandhoefer     : DKH picture change effects
   Igor Schapiro          : Molecular dynamics
   Kantharuban Sivalingam : CASSCF convergence, NEVPT2
   Boris Wezisla          : Elementary symmetry handling
   Frank Wennmohs         : Technical directorship


 We gratefully acknowledge several colleagues who have allowed us to
 interface, adapt or use parts of their codes:
   Stefan Grimme, W. Hujo, H. Kruse, T. Risthaus : VdW corrections, initial TS optimization,
                                                   DFT functionals, gCP
   Ed Valeev                                     : LibInt (2-el integral package), F12 methods
   Garnet Chan, S. Sharma, R. Olivares           : DMRG
   Ulf Ekstrom                                   : XCFun DFT Library
   Mihaly Kallay                                 : mrcc  (arbitrary order and MRCC methods)
   Andreas Klamt, Michael Diedenhofen            : otool_cosmo (COSMO solvation model)
   Frank Weinhold                                : gennbo (NPA and NBO analysis)
   Christopher J. Cramer and Donald G. Truhlar   : smd solvation model


 Your calculation uses the libint2 library for the computation of 2-el integrals
 For citations please refer to: http://libint.valeyev.net

 This ORCA versions uses:
   CBLAS   interface :  Fast vector & matrix operations
   LAPACKE interface :  Fast linear algebra routines
   SCALAPACK package :  Parallel linear algebra routines


Your calculation utilizes the basis: Ahlrichs-TZV
Cite in your paper:
H - Kr: A. Schaefer, H. Horn and R. Ahlrichs, J. Chem. Phys. 97, 2571 (1992).

The def2-TZV basis will be loaded
Cite in your paper:
 	F. Weigend, R. Ahlrichs, Phys. Chem. Chem. Phys. 2005, 7, 3297.

================================================================================
                                        WARNINGS
                       Please study these warnings very carefully!
================================================================================
Now building the actual basis set
WARNING: Geometry optimizations can change the point-group symmetry!

WARNING: Geometry Optimization
  ===> : Switching off AutoStart
         For restart on a previous wavefunction, please use MOREAD


INFO   : the flag for use of LIBINT has been found!

================================================================================
                                       INPUT FILE
================================================================================
NAME = 5479_+.inp
|  1> ! NORI PBE0 def2-TZVP UseSym TightOPT Freq TightSCF Grid3 FinalGrid5 XYZFile
|  2> % pal
|  3>     nprocs 8
|  4> end
|  5> %method
|  6>     SymThresh 5.0e-2
|  7> end
|  8> % geom 
|  9>     MaxIter 10
| 10> end 
| 11> % maxcore 2000
| 12> % output
| 13>     printlevel mini
| 14>     print[ P_Basis ] 0
| 15>     print[ P_SCFInfo ] 1
| 16>     print[ P_SCFIterInfo ] 1
| 17>     print[ P_OrbEn ] 0
| 18>     print[ P_Cartesian ] 0
| 19> end
| 20> % elprop
| 21>     Dipole false
| 22> end
| 23> *xyz 1 1
| 24>  C        3.9550225021    -1.1205694725    -0.2913928303 
| 25>  C        2.7673534231    -0.1923729262    -0.1683746391 
| 26>  O        1.9015829926    -0.5519390657     0.8888183021 
| 27>  C        3.0960505985     1.2666964923    -0.0339808930 
| 28>  C        4.2842330427     1.8448865294    -0.1915995326 
| 29>  C        4.4624361377     3.3151438187    -0.0837276881 
| 30>  N        5.2439173891     3.6646042929     1.1764451822 
| 31>  H        4.5509624607    -0.9007415966    -1.1800425085 
| 32>  H        3.6012392322    -2.1482639809    -0.3764976105 
| 33>  H        4.6062409090    -1.0542251576     0.5865286769 
| 34>  H        2.1556769742    -0.2822376766    -1.0758180741 
| 35>  H        2.4281676964    -0.7976147557     1.6553820939 
| 36>  H        2.2284001120     1.8802353393     0.2069048711 
| 37>  H        5.1596889278     1.2585152391    -0.4591579604 
| 38>  H        3.5111438250     3.8404758604    -0.0037982501 
| 39>  H        5.0363543564     3.7406555906    -0.9094437930 
| 40>  H        4.7469434683     3.3197190326     2.0005083221 
| 41>  H        5.3820523842     4.6726286692     1.2784903374 
| 42>  H        6.1633135681     3.2189037674     1.1672859940 
| 43> *
| 44> 
| 45>                          ****END OF INPUT****
================================================================================

The point group is C1 - hence turning off symmetry
If this is a round-off problem, please increase the symmetry
        detection tolerance (%method SymThresh)


                       *****************************
                       * Geometry Optimization Run *
                       *****************************

Geometry optimization settings:
Update method            Update   .... BFGS
Choice of coordinates    CoordSys .... Redundant Internals
Initial Hessian          InHess   .... Almoef's Model

Convergence Tolerances:
Energy Change            TolE     ....  1.0000e-06 Eh
Max. Gradient            TolMAXG  ....  1.0000e-04 Eh/bohr
RMS Gradient             TolRMSG  ....  3.0000e-05 Eh/bohr
Max. Displacement        TolMAXD  ....  1.0000e-03 bohr
RMS Displacement         TolRMSD  ....  6.0000e-04 bohr

------------------------------------------------------------------------------
                        ORCA OPTIMIZATION COORDINATE SETUP
------------------------------------------------------------------------------

The optimization will be done in new redundant internal coordinates
Making redundant internal coordinates   ...  (new redundants) done
Evaluating the initial hessian          ...  (Almloef) done
Evaluating the coordinates              ...  done
Calculating the B-matrix                .... done
Calculating the G-matrix                .... done
Diagonalizing the G-matrix              .... done
Small eigenvalue found = 1.625e-02
The first mode is                       ....   35
The number of degrees of freedom        ....   51

    -----------------------------------------------------------------
                    Redundant Internal Coordinates


    -----------------------------------------------------------------
         Definition                    Initial Value    Approx d2E/dq
    -----------------------------------------------------------------
      1. B(C   1,C   0)                  1.5124         0.398581   
      2. B(O   2,C   1)                  1.4130         0.514301   
      3. B(C   3,C   1)                  1.5017         0.414562   
      4. B(C   4,C   3)                  1.3308         0.776695   
      5. B(C   5,C   4)                  1.4849         0.440825   
      6. B(N   6,C   5)                  1.5234         0.342752   
      7. B(H   7,C   0)                  1.0923         0.357042   
      8. B(H   8,C   0)                  1.0902         0.359820   
      9. B(H   9,C   0)                  1.0951         0.353423   
     10. B(H  10,C   1)                  1.0980         0.349628   
     11. B(H  11,O   2)                  0.9619         0.516323   
     12. B(H  12,C   3)                  1.0896         0.360602   
     13. B(H  13,C   4)                  1.0871         0.363923   
     14. B(H  14,C   5)                  1.0896         0.360574   
     15. B(H  15,C   5)                  1.0919         0.357593   
     16. B(H  16,N   6)                  1.0223         0.413657   
     17. B(H  17,N   6)                  1.0225         0.413212   
     18. B(H  18,N   6)                  1.0218         0.414391   
     19. A(C   1,C   0,H   9)          111.3833         0.326786   
     20. A(H   8,C   0,H   9)          108.2200         0.289951   
     21. A(C   1,C   0,H   7)          111.7836         0.327335   
     22. A(H   7,C   0,H   9)          108.3957         0.289599   
     23. A(H   7,C   0,H   8)          107.6525         0.290415   
     24. A(C   1,C   0,H   8)          109.2722         0.327753   
     25. A(O   2,C   1,H  10)          104.8434         0.338225   
     26. A(C   0,C   1,C   3)          115.5765         0.374042   
     27. A(O   2,C   1,C   3)          108.3255         0.388486   
     28. A(C   0,C   1,H  10)          108.6638         0.326206   
     29. A(C   0,C   1,O   2)          112.6971         0.385833   
     30. A(C   3,C   1,H  10)          105.9869         0.328325   
     31. A(C   1,O   2,H  11)          109.0153         0.358044   
     32. A(C   1,C   3,C   4)          127.3725         0.420503   
     33. A(C   1,C   3,H  12)          113.1159         0.330005   
     34. A(C   4,C   3,H  12)          119.5058         0.366805   
     35. A(C   5,C   4,H  13)          117.0831         0.333887   
     36. A(C   3,C   4,C   5)          121.9197         0.425144   
     37. A(C   3,C   4,H  13)          120.9183         0.367382   
     38. A(C   4,C   5,N   6)          110.4122         0.366029   
     39. A(H  14,C   5,H  15)          109.0547         0.290581   
     40. A(N   6,C   5,H  15)          105.4572         0.317516   
     41. A(C   4,C   5,H  15)          113.2028         0.332916   
     42. A(N   6,C   5,H  14)          106.0557         0.317946   
     43. A(C   4,C   5,H  14)          112.2040         0.333375   
     44. A(H  16,N   6,H  18)          107.3078         0.299019   
     45. A(C   5,N   6,H  18)          110.7382         0.322516   
     46. A(H  16,N   6,H  17)          108.5306         0.298883   
     47. A(C   5,N   6,H  17)          112.2084         0.322365   
     48. A(H  17,N   6,H  18)          108.0199         0.298967   
     49. A(C   5,N   6,H  16)          109.8794         0.322422   
     50. D(C   3,C   1,C   0,H   7)    -61.2901         0.012608   
     51. D(C   3,C   1,C   0,H   8)    179.6527         0.012608   
     52. D(O   2,C   1,C   0,H   7)    173.3991         0.012608   
     53. D(H  10,C   1,C   0,H   7)     57.6538         0.012608   
     54. D(C   3,C   1,C   0,H   9)     60.1396         0.012608   
     55. D(H  10,C   1,C   0,H   9)    179.0835         0.012608   
     56. D(H  10,C   1,C   0,H   8)    -61.4034         0.012608   
     57. D(O   2,C   1,C   0,H   8)     54.3418         0.012608   
     58. D(O   2,C   1,C   0,H   9)    -65.1712         0.012608   
     59. D(H  11,O   2,C   1,H  10)    160.0761         0.020952   
     60. D(H  11,O   2,C   1,C   0)     42.0614         0.020952   
     61. D(H  11,O   2,C   1,C   3)    -87.0984         0.020952   
     62. D(C   4,C   3,C   1,H  10)   -110.5265         0.012719   
     63. D(C   4,C   3,C   1,O   2)    137.4114         0.012719   
     64. D(C   4,C   3,C   1,C   0)      9.8830         0.012719   
     65. D(H  12,C   3,C   1,H  10)     68.5774         0.012719   
     66. D(H  12,C   3,C   1,O   2)    -43.4847         0.012719   
     67. D(H  12,C   3,C   1,C   0)   -171.0131         0.012719   
     68. D(H  13,C   4,C   3,H  12)   -178.2938         0.043322   
     69. D(H  13,C   4,C   3,C   1)      0.7592         0.043322   
     70. D(C   5,C   4,C   3,H  12)     -1.6189         0.043322   
     71. D(C   5,C   4,C   3,C   1)    177.4341         0.043322   
     72. D(H  15,C   5,C   4,H  13)     45.0076         0.014338   
     73. D(H  15,C   5,C   4,C   3)   -131.7886         0.014338   
     74. D(H  14,C   5,C   4,H  13)    168.9679         0.014338   
     75. D(H  14,C   5,C   4,C   3)     -7.8284         0.014338   
     76. D(N   6,C   5,C   4,H  13)    -72.9566         0.014338   
     77. D(N   6,C   5,C   4,C   3)    110.2471         0.014338   
     78. D(H  16,N   6,C   5,H  15)    178.2652         0.010855   
     79. D(H  16,N   6,C   5,H  14)     62.6674         0.010855   
     80. D(H  16,N   6,C   5,C   4)    -59.1149         0.010855   
     81. D(H  18,N   6,C   5,H  15)    -63.3636         0.010855   
     82. D(H  18,N   6,C   5,H  14)   -178.9614         0.010855   
     83. D(H  18,N   6,C   5,C   4)     59.2563         0.010855   
     84. D(H  17,N   6,C   5,H  15)     57.4246         0.010855   
     85. D(H  17,N   6,C   5,H  14)    -58.1732         0.010855   
     86. D(H  17,N   6,C   5,C   4)   -179.9555         0.010855   
    -----------------------------------------------------------------

Number of atoms                         .... 19
Number of degrees of freedom            .... 86

         *************************************************************
         *                GEOMETRY OPTIMIZATION CYCLE   1            *
         *************************************************************


           ************************************************************
           *        Program running with 8 parallel MPI-processes     *
           *              working on a common directory               *
           ************************************************************
           ************************************************************
           *              Shut down parallel processing               *
           ************************************************************


           ************************************************************
           *        Program running with 8 parallel MPI-processes     *
           *              working on a common directory               *
           ************************************************************
------------
SCF SETTINGS
------------
Hamiltonian:
 Density Functional     Method          .... DFT(GTOs)
 Exchange Functional    Exchange        .... PBE
   PBE kappa parameter  XKappa          ....  0.804000
 Correlation Functional Correlation     .... PBE
 LDA part of GGA corr.  LDAOpt          .... PW91-LDA
 Gradients option       PostSCFGGA      .... off
 Hybrid DFT is turned on
   Fraction HF Exchange ScalHFX         ....  0.250000
   Scaling of DF-GGA-X  ScalDFX         ....  0.750000
   Scaling of DF-GGA-C  ScalDFC         ....  1.000000
   Scaling of DF-LDA-C  ScalLDAC        ....  1.000000
   Perturbative correction              ....  0.000000
   NL short-range parameter             ....  6.900000


General Settings:
 Integral files         IntName         .... 5479_+
 Hartree-Fock type      HFTyp           .... RHF
 Total Charge           Charge          ....    1
 Multiplicity           Mult            ....    1
 Number of Electrons    NEL             ....   56
 Basis Dimension        Dim             ....  289
 Nuclear Repulsion      ENuc            ....    313.4274192992 Eh

Convergence Acceleration:
 DIIS                   CNVDIIS         .... on
   Start iteration      DIISMaxIt       ....    12
   Startup error        DIISStart       ....  0.200000
   # of expansion vecs  DIISMaxEq       ....     5
   Bias factor          DIISBfac        ....   1.050
   Max. coefficient     DIISMaxC        ....  10.000
 Newton-Raphson         CNVNR           .... off
 SOSCF                  CNVSOSCF        .... on
   Start iteration      SOSCFMaxIt      ....   150
   Startup grad/error   SOSCFStart      ....  0.003300
 Level Shifting         CNVShift        .... on
   Level shift para.    LevelShift      ....    0.2500
   Turn off err/grad.   ShiftErr        ....    0.0010
 Zerner damping         CNVZerner       .... off
 Static damping         CNVDamp         .... on
   Fraction old density DampFac         ....    0.7000
   Max. Damping (<1)    DampMax         ....    0.9800
   Min. Damping (>=0)   DampMin         ....    0.0000
   Turn off err/grad.   DampErr         ....    0.1000
 Fernandez-Rico         CNVRico         .... off

SCF Procedure:
 Maximum # iterations   MaxIter         ....   125
 SCF integral mode      SCFMode         .... Direct
   Integral package                     .... LIBINT
 Reset frequeny         DirectResetFreq ....    20
 Integral Threshold     Thresh          ....  2.500e-11 Eh
 Primitive CutOff       TCut            ....  2.500e-12 Eh

Convergence Tolerance:
 Convergence Check Mode ConvCheckMode   .... Total+1el-Energy
 Energy Change          TolE            ....  1.000e-08 Eh
 1-El. energy change                    ....  1.000e-05 Eh
 Orbital Gradient       TolG            ....  1.000e-05
 Orbital Rotation angle TolX            ....  1.000e-05
 DIIS Error             TolErr          ....  5.000e-07


Diagonalization of the overlap matrix:
Smallest eigenvalue                        ... 8.466e-05
Time for diagonalization                   ...    0.155 sec
Threshold for overlap eigenvalues          ... 1.000e-08
Number of eigenvalues below threshold      ... 0
Time for construction of square roots      ...    0.069 sec
Total time needed                          ...    0.224 sec

-------------------
DFT GRID GENERATION
-------------------

General Integration Accuracy     IntAcc      ...  4.340
Radial Grid Type                 RadialGrid  ... Gauss-Chebyshev
Angular Grid (max. acc.)         AngularGrid ... Lebedev-194
Angular grid pruning method      GridPruning ... 3 (G Style)
Weight generation scheme         WeightScheme... Becke
Basis function cutoff            BFCut       ...    1.0000e-11
Integration weight cutoff        WCut        ...    1.0000e-14
Grids for H and He will be reduced by one unit

# of grid points (after initial pruning)     ...  41422 (   0.0 sec)
# of grid points (after weights+screening)   ...  38050 (   0.3 sec)
nearest neighbour list constructed           ...    0.0 sec
Grid point re-assignment to atoms done       ...    0.0 sec
Grid point division into batches done        ...    0.1 sec
Reduced shell lists constructed in    0.1 sec

Total number of grid points                  ...    38050
Total number of batches                      ...      606
Average number of points per batch           ...       62
Average number of grid points per atom       ...     2003
Average number of shells per batch           ...    84.75 (67.80%)
Average number of basis functions per batch  ...   198.81 (68.79%)
Average number of large shells per batch     ...    67.40 (79.53%)
Average number of large basis fcns per batch ...   160.08 (80.52%)
Maximum spatial batch extension              ...  12.56, 14.53, 16.46 au
Average spatial batch extension              ...   0.23,  0.25,  0.24 au

Time for grid setup =    1.201 sec

Loading Hartree-Fock densities                     ... done
Calculating cut-offs                               ... done
Setting up the integral package                    ... done
Initializing the effective Hamiltonian             ... done
Starting the Coulomb interaction                   ... done (   0.0 sec)
Reading the grid                                   ... done
Mapping shells                                     ... done
Starting the XC term evaluation                    ... done (   0.7 sec)
  promolecular density results
     # of electrons  =     56.992120006
     EX              =    -43.843557169
     EC              =     -1.868425780
     EX+EC           =    -45.711982949
Transforming the Hamiltonian                       ... done (   0.0 sec)
Diagonalizing the Hamiltonian                      ... done (   0.1 sec)
Back transforming the eigenvectors                 ... done (   0.0 sec)
Now organizing SCF variables                       ... done
--------------
SCF ITERATIONS
--------------
ITER       Energy         Delta-E        Max-DP      RMS-DP      [F,P]     Damp
               ***  Starting incremental Fock matrix formation  ***
  0   -327.0001567981   0.000000000000 0.04010386  0.00102626  0.2518951 0.7000
  1   -327.0906043303  -0.090447532195 0.03299723  0.00082057  0.1095258 0.7000
                               ***Turning on DIIS***
  2   -327.1297015109  -0.039097180650 0.07114874  0.00155654  0.0377899 0.0000
  3   -327.1882078239  -0.058506313033 0.02234696  0.00053013  0.0615507 0.0000
  4   -327.2017785051  -0.013570681173 0.01010176  0.00017781  0.0082806 0.0000
  5   -327.2022447371  -0.000466231928 0.00402940  0.00007736  0.0076319 0.0000
                      *** Initiating the SOSCF procedure ***
                           *** Shutting down DIIS ***
                      *** Re-Reading the Fockian *** 
                      *** Removing any level shift *** 
ITER      Energy       Delta-E        Grad      Rot      Max-DP    RMS-DP
  6   -327.20232030  -0.0000755599  0.000202  0.000202  0.002396  0.000048
               *** Restarting incremental Fock matrix formation ***
  7   -327.20232368  -0.0000033789  0.000114  0.000388  0.000345  0.000010
  8   -327.20232338   0.0000002964  0.000132  0.000190  0.000113  0.000004
  9   -327.20232426  -0.0000008828  0.000035  0.000098  0.000079  0.000002
 10   -327.20232424   0.0000000195  0.000039  0.000047  0.000055  0.000001
                  ***Gradient check signals convergence***
              ***Rediagonalizing the Fockian in SOSCF/NRSCF***

               *****************************************************
               *                     SUCCESS                       *
               *           SCF CONVERGED AFTER  11 CYCLES          *
               *****************************************************

Setting up the final grid:

General Integration Accuracy     IntAcc      ...  5.010
Radial Grid Type                 RadialGrid  ... Gauss-Chebyshev
Angular Grid (max. acc.)         AngularGrid ... Lebedev-434
Angular grid pruning method      GridPruning ... 3 (G Style)
Weight generation scheme         WeightScheme... Becke
Basis function cutoff            BFCut       ...    1.0000e-11
Integration weight cutoff        WCut        ...    1.0000e-14
Grids for H and He will be reduced by one unit

# of grid points (after initial pruning)     ... 155226 (   0.0 sec)
# of grid points (after weights+screening)   ... 140974 (   5.7 sec)
nearest neighbour list constructed           ...    0.0 sec
Grid point re-assignment to atoms done       ...    0.0 sec
Grid point division into batches done        ...    0.8 sec
Reduced shell lists constructed in    1.0 sec

Total number of grid points                  ...   140974
Total number of batches                      ...     2212
Average number of points per batch           ...       63
Average number of grid points per atom       ...     7420
Average number of shells per batch           ...    81.83 (65.46%)
Average number of basis functions per batch  ...   192.37 (66.56%)
Average number of large shells per batch     ...    64.71 (79.08%)
Average number of large basis fcns per batch ...   153.19 (79.64%)
Maximum spatial batch extension              ...  12.76, 16.59, 15.33 au
Average spatial batch extension              ...   0.16,  0.16,  0.16 au

Final grid set up in    8.5 sec
Final integration                            ... done (   1.2 sec)
Change in XC energy                          ...     0.000227002
Integrated number of electrons               ...    56.000003150
Previous integrated no of electrons          ...    55.998855751
Total Energy       :         -327.20209728 Eh           -8903.62172 eV
  Last Energy change         ...   -3.9963e-08  Tolerance :   1.0000e-08
  Last MAX-Density change    ...    8.9275e-06  Tolerance :   1.0000e-07
             **** THE GBW FILE WAS UPDATED (5479_+.gbw) ****
             **** DENSITY FILE WAS UPDATED (5479_+.scfp.tmp) ****
             **** ENERGY FILE WAS UPDATED (5479_+.en.tmp) ****
Total SCF time: 0 days 0 hours 1 min 50 sec 
           ************************************************************
           *              Shut down parallel processing               *
           ************************************************************

-------------------------   --------------------
FINAL SINGLE POINT ENERGY      -327.202097281008
-------------------------   --------------------



           ************************************************************
           *        Program running with 8 parallel MPI-processes     *
           *              working on a common directory               *
           ************************************************************
------------------------------------------------------------------------------
                         ORCA SCF GRADIENT CALCULATION
------------------------------------------------------------------------------

Gradient of the Kohn-Sham DFT energy:
Kohn-Sham wavefunction type      ... RKS
Hartree-Fock exchange scaling    ...    0.250
Number of operators              ...    1
Number of atoms                  ...   19
Basis set dimensions             ...  289
Integral neglect threshold       ... 2.5e-11
Integral primitive cutoff        ... 2.5e-12

Nuclear repulsion gradient       ... done
One Electron Gradient            ... done
Pre-screening matrix             ... done
Starting the two electron gradient:
Two electron gradient done
Exchange-correlation gradient    ... done

------------------
CARTESIAN GRADIENT
------------------

   1   C   :    0.000227719    0.000361656    0.000248314
   2   C   :   -0.000121424   -0.000010879   -0.000100558
   3   O   :    0.000012356   -0.000117617    0.000001458
   4   C   :   -0.000050001   -0.000110231   -0.000117303
   5   C   :    0.000081804    0.000013103    0.000196402
   6   C   :   -0.000008394    0.000239837    0.000153239
   7   N   :    0.000027070   -0.000173938   -0.000089698
   8   H   :   -0.000170703   -0.000042334   -0.000155694
   9   H   :   -0.000042589   -0.000018655   -0.000007439
  10   H   :    0.000026874   -0.000127853   -0.000055968
  11   H   :    0.000048861   -0.000076720   -0.000029160
  12   H   :    0.000051145    0.000078778    0.000041522
  13   H   :   -0.000038183   -0.000009585   -0.000024121
  14   H   :    0.000040451   -0.000012726    0.000006704
  15   H   :   -0.000081128   -0.000121391   -0.000051215
  16   H   :   -0.000035175    0.000017597   -0.000075148
  17   H   :   -0.000019694    0.000007798    0.000010320
  18   H   :    0.000027349   -0.000009746   -0.000003350
  19   H   :    0.000023661    0.000112907    0.000051694

Norm of the cartesian gradient     ...    0.000791826
RMS gradient                       ...    0.000104880
MAX gradient                       ...    0.000361656

-------
TIMINGS
-------

Total SCF gradient time            ...       45.163 sec

One electron gradient       ....       0.225 sec  (  0.5%)
Prescreening matrices       ....       0.480 sec  (  1.1%)
Two electron gradient       ....      20.831 sec  ( 46.1%)
XC gradient                 ....       3.557 sec  (  7.9%)
           ************************************************************
           *              Shut down parallel processing               *
           ************************************************************
------------------------------------------------------------------------------
                         ORCA GEOMETRY RELAXATION STEP
------------------------------------------------------------------------------

Reading the OPT-File                    .... done
Getting information on internals        .... done
Copying old internal coords+grads       .... done
Making the new internal coordinates     .... (new redundants).... done
Validating the new internal coordinates .... (new redundants).... done
Calculating the B-matrix                .... done
Calculating the G,G- and P matrices     .... done
Transforming gradient to internals      .... done
Projecting the internal gradient        .... done
Number of atoms                         ....  19
Number of internal coordinates          ....  86
Current Energy                          ....  -327.202097281 Eh
Current gradient norm                   ....     0.000791826 Eh/bohr
Maximum allowed component of the step   ....  0.300
Current trust radius                    ....  0.300
Evaluating the initial hessian          ....  (Almloef) done
Projecting the Hessian                  .... done
Forming the augmented Hessian           .... done
Diagonalizing the augmented Hessian     .... done
Last element of RFO vector              ....  0.999980744
Lowest eigenvalues of augmented Hessian:
 -0.000001405  0.010855162  0.012608001  0.012719092  0.014338294
Length of the computed step             ....  0.006205839
The final length of the internal step   ....  0.006205839
Converting the step to cartesian space:
 Initial RMS(Int)=    0.0006691929
Transforming coordinates:
 Iter   0:  RMS(Cart)=    0.0016535013 RMS(Int)=    0.0006691498
 Iter   1:  RMS(Cart)=    0.0000012165 RMS(Int)=    0.0000006358
 Iter   2:  RMS(Cart)=    0.0000000023 RMS(Int)=    0.0000000009
done
Storing new coordinates                 .... done

                                .--------------------.
          ----------------------|Geometry convergence|---------------------
          Item                value                 Tolerance   Converged
          -----------------------------------------------------------------
          RMS gradient        0.00006032            0.00003000      NO
          MAX gradient        0.00023098            0.00010000      NO
          RMS step            0.00066919            0.00060000      NO
          MAX step            0.00254875            0.00100000      NO
          ....................................................
          Max(Bonds)      0.0003      Max(Angles)    0.02
          Max(Dihed)        0.15      Max(Improp)    0.00
          -----------------------------------------------------------------

The optimization has not yet converged - more geometry cycles are needed


    ---------------------------------------------------------------------------
                         Redundant Internal Coordinates
                            (Angstroem and degrees)

        Definition                    Value    dE/dq     Step     New-Value
    ----------------------------------------------------------------------------
     1. B(C   1,C   0)                1.5124 -0.000181  0.0002    1.5126   
     2. B(O   2,C   1)                1.4130  0.000074 -0.0001    1.4129   
     3. B(C   3,C   1)                1.5017 -0.000079  0.0001    1.5018   
     4. B(C   4,C   3)                1.3308 -0.000209  0.0001    1.3309   
     5. B(C   5,C   4)                1.4849  0.000002 -0.0000    1.4849   
     6. B(N   6,C   5)                1.5234  0.000092 -0.0001    1.5233   
     7. B(H   7,C   0)                1.0923  0.000231 -0.0003    1.0920   
     8. B(H   8,C   0)                1.0902  0.000019 -0.0000    1.0902   
     9. B(H   9,C   0)                1.0951  0.000117 -0.0002    1.0949   
    10. B(H  10,C   1)                1.0980 -0.000093  0.0001    1.0982   
    11. B(H  11,O   2)                0.9619 -0.000035  0.0000    0.9619   
    12. B(H  12,C   3)                1.0896 -0.000032  0.0000    1.0897   
    13. B(H  13,C   4)                1.0871 -0.000015  0.0000    1.0871   
    14. B(H  14,C   5)                1.0896 -0.000151  0.0002    1.0899   
    15. B(H  15,C   5)                1.0919  0.000082 -0.0001    1.0918   
    16. B(H  16,N   6)                1.0223 -0.000007  0.0000    1.0223   
    17. B(H  17,N   6)                1.0225  0.000011 -0.0000    1.0225   
    18. B(H  18,N   6)                1.0218 -0.000122  0.0002    1.0219   
    19. A(C   1,C   0,H   9)          111.38  0.000098   -0.02    111.36   
    20. A(H   8,C   0,H   9)          108.22 -0.000037    0.00    108.22   
    21. A(C   1,C   0,H   7)          111.78  0.000036   -0.00    111.78   
    22. A(H   7,C   0,H   9)          108.40 -0.000071    0.01    108.41   
    23. A(H   7,C   0,H   8)          107.65 -0.000049    0.02    107.67   
    24. A(C   1,C   0,H   8)          109.27  0.000017   -0.00    109.27   
    25. A(O   2,C   1,H  10)          104.84  0.000014   -0.00    104.84   
    26. A(C   0,C   1,C   3)          115.58  0.000037   -0.01    115.57   
    27. A(O   2,C   1,C   3)          108.33 -0.000033   -0.00    108.32   
    28. A(C   0,C   1,H  10)          108.66 -0.000056    0.02    108.68   
    29. A(C   0,C   1,O   2)          112.70  0.000029   -0.01    112.69   
    30. A(C   3,C   1,H  10)          105.99  0.000006    0.00    105.99   
    31. A(C   1,O   2,H  11)          109.02  0.000143   -0.02    108.99   
    32. A(C   1,C   3,C   4)          127.37  0.000059   -0.01    127.36   
    33. A(C   1,C   3,H  12)          113.12 -0.000019    0.00    113.12   
    34. A(C   4,C   3,H  12)          119.51 -0.000040    0.01    119.51   
    35. A(C   5,C   4,H  13)          117.08  0.000002    0.00    117.08   
    36. A(C   3,C   4,C   5)          121.92 -0.000014    0.00    121.92   
    37. A(C   3,C   4,H  13)          120.92  0.000012   -0.00    120.92   
    38. A(C   4,C   5,N   6)          110.41 -0.000106    0.02    110.43   
    39. A(H  14,C   5,H  15)          109.05 -0.000022    0.00    109.06   
    40. A(N   6,C   5,H  15)          105.46  0.000012    0.00    105.46   
    41. A(C   4,C   5,H  15)          113.20  0.000041   -0.01    113.20   
    42. A(N   6,C   5,H  14)          106.06  0.000058   -0.01    106.04   
    43. A(C   4,C   5,H  14)          112.20  0.000016   -0.00    112.20   
    44. A(H  16,N   6,H  18)          107.31  0.000015    0.00    107.31   
    45. A(C   5,N   6,H  18)          110.74 -0.000030    0.01    110.74   
    46. A(H  16,N   6,H  17)          108.53 -0.000003   -0.00    108.53   
    47. A(C   5,N   6,H  17)          112.21  0.000050   -0.01    112.20   
    48. A(H  17,N   6,H  18)          108.02 -0.000002   -0.00    108.02   
    49. A(C   5,N   6,H  16)          109.88 -0.000031    0.01    109.89   
    50. D(C   3,C   1,C   0,H   7)    -61.29 -0.000003   -0.01    -61.30   
    51. D(C   3,C   1,C   0,H   8)    179.65  0.000025   -0.02    179.63   
    52. D(O   2,C   1,C   0,H   7)    173.40 -0.000014    0.01    173.41   
    53. D(H  10,C   1,C   0,H   7)     57.65 -0.000012    0.01     57.66   
    54. D(C   3,C   1,C   0,H   9)     60.14 -0.000001   -0.01     60.13   
    55. D(H  10,C   1,C   0,H   9)    179.08 -0.000010    0.00    179.09   
    56. D(H  10,C   1,C   0,H   8)    -61.40  0.000016   -0.01    -61.41   
    57. D(O   2,C   1,C   0,H   8)     54.34  0.000015   -0.00     54.34   
    58. D(O   2,C   1,C   0,H   9)    -65.17 -0.000011    0.01    -65.16   
    59. D(H  11,O   2,C   1,H  10)    160.08  0.000012   -0.07    160.01   
    60. D(H  11,O   2,C   1,C   0)     42.06  0.000056   -0.09     41.98   
    61. D(H  11,O   2,C   1,C   3)    -87.10  0.000012   -0.07    -87.16   
    62. D(C   4,C   3,C   1,H  10)   -110.53 -0.000003    0.09   -110.43   
    63. D(C   4,C   3,C   1,O   2)    137.41 -0.000007    0.09    137.51   
    64. D(C   4,C   3,C   1,C   0)      9.88 -0.000047    0.12     10.00   
    65. D(H  12,C   3,C   1,H  10)     68.58 -0.000017    0.12     68.70   
    66. D(H  12,C   3,C   1,O   2)    -43.48 -0.000021    0.12    -43.36   
    67. D(H  12,C   3,C   1,C   0)   -171.01 -0.000060    0.15   -170.87   
    68. D(H  13,C   4,C   3,H  12)   -178.29 -0.000020    0.02   -178.28   
    69. D(H  13,C   4,C   3,C   1)      0.76 -0.000034    0.05      0.81   
    70. D(C   5,C   4,C   3,H  12)     -1.62 -0.000031    0.04     -1.58   
    71. D(C   5,C   4,C   3,C   1)    177.43 -0.000045    0.07    177.51   
    72. D(H  15,C   5,C   4,H  13)     45.01 -0.000012   -0.02     44.99   
    73. D(H  15,C   5,C   4,C   3)   -131.79 -0.000002   -0.04   -131.83   
    74. D(H  14,C   5,C   4,H  13)    168.97  0.000004   -0.02    168.95   
    75. D(H  14,C   5,C   4,C   3)     -7.83  0.000014   -0.04     -7.87   
    76. D(N   6,C   5,C   4,H  13)    -72.96  0.000018   -0.03    -72.98   
    77. D(N   6,C   5,C   4,C   3)    110.25  0.000028   -0.05    110.20   
    78. D(H  16,N   6,C   5,H  15)    178.27  0.000014   -0.02    178.25   
    79. D(H  16,N   6,C   5,H  14)     62.67  0.000008   -0.02     62.65   
    80. D(H  16,N   6,C   5,C   4)    -59.11  0.000012   -0.01    -59.13   
    81. D(H  18,N   6,C   5,H  15)    -63.36 -0.000005   -0.01    -63.37   
    82. D(H  18,N   6,C   5,H  14)   -178.96 -0.000012   -0.01   -178.97   
    83. D(H  18,N   6,C   5,C   4)     59.26 -0.000007   -0.01     59.25   
    84. D(H  17,N   6,C   5,H  15)     57.42  0.000006   -0.02     57.41   
    85. D(H  17,N   6,C   5,H  14)    -58.17 -0.000000   -0.01    -58.19   
    86. D(H  17,N   6,C   5,C   4)   -179.96  0.000004   -0.01   -179.97   
    ----------------------------------------------------------------------------

         *************************************************************
         *                GEOMETRY OPTIMIZATION CYCLE   2            *
         *************************************************************
---------------------------------
CARTESIAN COORDINATES (ANGSTROEM)
---------------------------------
  C     -1.523256   -1.346777    1.232994
  C     -0.874002   -0.000155    1.463314
  O     -0.000744    0.000965    2.574039
  C     -0.141077    0.575875    0.285902
  C     -0.153336    0.132410   -0.968886
  C      0.578486    0.831092   -2.055773
  N      1.769022   -0.000690   -2.515338
  H     -2.279488   -1.302748    0.446486
  H     -2.017551   -1.669337    2.149580
  H     -0.782553   -2.104945    0.958421
  H     -1.655322    0.727951    1.719025
  H      0.514256   -0.811487    2.568187
  H      0.440884    1.462466    0.536210
  H     -0.747980   -0.733331   -1.249563
  H      0.987207    1.787007   -1.728701
  H     -0.027994    0.989843   -2.949620
  H      2.401882   -0.165765   -1.729676
  H      2.293545    0.456549   -3.264595
  H      1.462494   -0.914120   -2.855964

----------------------------
CARTESIAN COORDINATES (A.U.)
----------------------------
  NO LB      ZA    FRAG    MASS        X           Y           Z
   0 C     6.0000    0    12.011         -2.878537231049922         -2.545039476736535          2.330021146435107
   1 C     6.0000    0    12.011         -1.651624493819225         -0.000293142328644          2.765263540889751
   2 O     8.0000    0    15.999         -0.001406321627709          0.001822878067756          4.864228108752714
   3 C     6.0000    0    12.011         -0.266597577524575          1.088246902802463          0.540276101094598
   4 C     6.0000    0    12.011         -0.289763348947281          0.250218974476260         -1.830928660462450
   5 C     6.0000    0    12.011          1.093179844459088          1.570535815909897         -3.884847067529645
   6 N     7.0000    0    14.007          3.342966674202226         -0.001304074515945         -4.753299630586898
   7 H     1.0000    0     1.008         -4.307607188975292         -2.461837151967371          0.843736261442960
   8 H     1.0000    0     1.008         -3.812619074204832         -3.154589879366689          4.062117065220884
   9 H     1.0000    0     1.008         -1.478811633116262         -3.977768904937452          1.811153551178062
  10 H     1.0000    0     1.008         -3.128105107084570          1.375627629068085          3.248486509099394
  11 H     1.0000    0     1.008          0.971803372906620         -1.533487454726621          4.853170680597239
  12 H     1.0000    0     1.008          0.833149890617149          2.763660735577487          1.013289816763252
  13 H     1.0000    0     1.008         -1.413478283491603         -1.385795064903858         -2.361330958816387
  14 H     1.0000    0     1.008          1.865550133407672          3.376953661202361         -3.266771390882005
  15 H     1.0000    0     1.008         -0.052901439607746          1.870532190780240         -5.573974765751001
  16 H     1.0000    0     1.008          4.538899582720878         -0.313251077411552         -3.268613438993710
  17 H     1.0000    0     1.008          4.334171331673414          0.862752874755595         -6.169190818352002
  18 H     1.0000    0     1.008          2.763712214568574         -1.727436935780247         -5.396990183469169

--------------------------------
INTERNAL COORDINATES (ANGSTROEM)
--------------------------------
 C      0   0   0   0.000000     0.000     0.000
 C      1   0   0   1.512603     0.000     0.000
 O      2   1   0   1.412901   112.687     0.000
 C      2   1   3   1.501762   115.568   125.293
 C      4   2   1   1.330903   127.364     9.999
 C      5   4   2   1.484939   121.922   177.505
 N      6   5   4   1.523298   110.431   110.197
 H      1   2   3   1.091979   111.779   173.409
 H      1   2   3   1.090184   109.269    54.338
 H      1   2   3   1.094920   111.363   294.838
 H      2   1   3   1.098174   108.683   244.250
 H      3   2   1   0.961944   108.992    41.976
 H      4   2   1   1.089668   113.119   189.133
 H      5   4   2   1.087147   120.917     0.806
 H      6   5   4   1.089863   112.200   352.127
 H      6   5   4   1.091780   113.197   228.173
 H      7   6   5   1.022266   109.886   300.870
 H      7   6   5   1.022535   112.198   180.033
 H      7   6   5   1.021930   110.744    59.251

---------------------------
INTERNAL COORDINATES (A.U.)
---------------------------
 C      0   0   0   0.000000     0.000     0.000
 C      1   0   0   2.858406     0.000     0.000
 O      2   1   0   2.669996   112.687     0.000
 C      2   1   3   2.837920   115.568   125.293
 C      4   2   1   2.515043   127.364     9.999
 C      5   4   2   2.806127   121.922   177.505
 N      6   5   4   2.878616   110.431   110.197
 H      1   2   3   2.063542   111.779   173.409
 H      1   2   3   2.060150   109.269    54.338
 H      1   2   3   2.069099   111.363   294.838
 H      2   1   3   2.075249   108.683   244.250
 H      3   2   1   1.817811   108.992    41.976
 H      4   2   1   2.059174   113.119   189.133
 H      5   4   2   2.054411   120.917     0.806
 H      6   5   4   2.059543   112.200   352.127
 H      6   5   4   2.063166   113.197   228.173
 H      7   6   5   1.931802   109.886   300.870
 H      7   6   5   1.932312   112.198   180.033
 H      7   6   5   1.931167   110.744    59.251



           ************************************************************
           *        Program running with 8 parallel MPI-processes     *
           *              working on a common directory               *
           ************************************************************
           ************************************************************
           *              Shut down parallel processing               *
           ************************************************************


           ************************************************************
           *        Program running with 8 parallel MPI-processes     *
           *              working on a common directory               *
           ************************************************************

Diagonalization of the overlap matrix:
Smallest eigenvalue                        ... 8.483e-05
Time for diagonalization                   ...    0.816 sec
Threshold for overlap eigenvalues          ... 1.000e-08
Number of eigenvalues below threshold      ... 0
Time for construction of square roots      ...    0.033 sec
Total time needed                          ...    0.849 sec

-------------------
DFT GRID GENERATION
-------------------

General Integration Accuracy     IntAcc      ...  4.340
Radial Grid Type                 RadialGrid  ... Gauss-Chebyshev
Angular Grid (max. acc.)         AngularGrid ... Lebedev-194
Angular grid pruning method      GridPruning ... 3 (G Style)
Weight generation scheme         WeightScheme... Becke
Basis function cutoff            BFCut       ...    1.0000e-11
Integration weight cutoff        WCut        ...    1.0000e-14
Grids for H and He will be reduced by one unit

# of grid points (after initial pruning)     ...  41422 (   0.0 sec)
# of grid points (after weights+screening)   ...  38051 (   0.3 sec)
nearest neighbour list constructed           ...    0.0 sec
Grid point re-assignment to atoms done       ...    0.0 sec
Grid point division into batches done        ...    0.1 sec
Reduced shell lists constructed in    0.1 sec

Total number of grid points                  ...    38051
Total number of batches                      ...      606
Average number of points per batch           ...       62
Average number of grid points per atom       ...     2003
Average number of shells per batch           ...    84.65 (67.72%)
Average number of basis functions per batch  ...   198.55 (68.70%)
Average number of large shells per batch     ...    67.43 (79.66%)
Average number of large basis fcns per batch ...   160.05 (80.61%)
Maximum spatial batch extension              ...  12.56, 14.53, 16.46 au
Average spatial batch extension              ...   0.23,  0.24,  0.25 au

Time for grid setup =    0.852 sec

--------------
SCF ITERATIONS
--------------
ITER       Energy         Delta-E        Max-DP      RMS-DP      [F,P]     Damp
               ***  Starting incremental Fock matrix formation  ***
                      *** Initiating the SOSCF procedure ***
                      *** Re-Reading the Fockian *** 
                      *** Removing any level shift *** 
ITER      Energy       Delta-E        Grad      Rot      Max-DP    RMS-DP
  0   -327.20232091 -327.2023209060  0.000129  0.000129  0.000404  0.000010
               *** Restarting incremental Fock matrix formation ***
  1   -327.20232302  -0.0000021116  0.000064  0.000163  0.000195  0.000004
  2   -327.20232328  -0.0000002621  0.000013  0.000052  0.000050  0.000001
  3   -327.20232328  -0.0000000005  0.000014  0.000027  0.000022  0.000001
  4   -327.20232329  -0.0000000125  0.000005  0.000013  0.000009  0.000000
  5   -327.20232329  -0.0000000002  0.000006  0.000008  0.000005  0.000000
                  ***Gradient check signals convergence***
              ***Rediagonalizing the Fockian in SOSCF/NRSCF***

               *****************************************************
               *                     SUCCESS                       *
               *           SCF CONVERGED AFTER   6 CYCLES          *
               *****************************************************

Setting up the final grid:

General Integration Accuracy     IntAcc      ...  5.010
Radial Grid Type                 RadialGrid  ... Gauss-Chebyshev
Angular Grid (max. acc.)         AngularGrid ... Lebedev-434
Angular grid pruning method      GridPruning ... 3 (G Style)
Weight generation scheme         WeightScheme... Becke
Basis function cutoff            BFCut       ...    1.0000e-11
Integration weight cutoff        WCut        ...    1.0000e-14
Grids for H and He will be reduced by one unit

# of grid points (after initial pruning)     ... 155226 (   0.0 sec)
# of grid points (after weights+screening)   ... 140969 (   4.7 sec)
nearest neighbour list constructed           ...    0.0 sec
Grid point re-assignment to atoms done       ...    0.1 sec
Grid point division into batches done        ...    1.3 sec
Reduced shell lists constructed in    1.7 sec

Total number of grid points                  ...   140969
Total number of batches                      ...     2213
Average number of points per batch           ...       63
Average number of grid points per atom       ...     7419
Average number of shells per batch           ...    81.84 (65.47%)
Average number of basis functions per batch  ...   192.46 (66.60%)
Average number of large shells per batch     ...    64.61 (78.94%)
Average number of large basis fcns per batch ...   153.03 (79.51%)
Maximum spatial batch extension              ...  12.76, 16.59, 15.33 au
Average spatial batch extension              ...   0.16,  0.16,  0.16 au

Final grid set up in    7.5 sec
Final integration                            ... done (   1.2 sec)
Change in XC energy                          ...     0.000225301
Integrated number of electrons               ...    56.000003574
Previous integrated no of electrons          ...    55.998843209
Total Energy       :         -327.20209799 Eh           -8903.62174 eV
  Last Energy change         ...    2.5216e-10  Tolerance :   1.0000e-08
  Last MAX-Density change    ...    3.4150e-06  Tolerance :   1.0000e-07
             **** THE GBW FILE WAS UPDATED (5479_+.gbw) ****
             **** DENSITY FILE WAS UPDATED (5479_+.scfp.tmp) ****
             **** ENERGY FILE WAS UPDATED (5479_+.en.tmp) ****
Total SCF time: 0 days 0 hours 1 min 10 sec 
           ************************************************************
           *              Shut down parallel processing               *
           ************************************************************

-------------------------   --------------------
FINAL SINGLE POINT ENERGY      -327.202097992032
-------------------------   --------------------



           ************************************************************
           *        Program running with 8 parallel MPI-processes     *
           *              working on a common directory               *
           ************************************************************
------------------------------------------------------------------------------
                         ORCA SCF GRADIENT CALCULATION
------------------------------------------------------------------------------

Gradient of the Kohn-Sham DFT energy:
Kohn-Sham wavefunction type      ... RKS
Hartree-Fock exchange scaling    ...    0.250
Number of operators              ...    1
Number of atoms                  ...   19
Basis set dimensions             ...  289
Integral neglect threshold       ... 2.5e-11
Integral primitive cutoff        ... 2.5e-12

Nuclear repulsion gradient       ... done
One Electron Gradient            ... done
Pre-screening matrix             ... done
Starting the two electron gradient:
Two electron gradient done
Exchange-correlation gradient    ... done

------------------
CARTESIAN GRADIENT
------------------

   1   C   :    0.000092428    0.000148317    0.000066044
   2   C   :   -0.000008595   -0.000049354   -0.000061602
   3   O   :   -0.000038416   -0.000045635    0.000004328
   4   C   :   -0.000059347   -0.000015171   -0.000014805
   5   C   :    0.000043622   -0.000008877    0.000052309
   6   C   :   -0.000037373    0.000051531    0.000041158
   7   N   :    0.000043359   -0.000018946   -0.000050961
   8   H   :   -0.000014967   -0.000032670   -0.000009757
   9   H   :   -0.000019386   -0.000019984   -0.000015481
  10   H   :   -0.000037307   -0.000045431   -0.000016096
  11   H   :    0.000012632    0.000001303    0.000004844
  12   H   :    0.000044020    0.000036098    0.000005504
  13   H   :   -0.000017358    0.000017267   -0.000013463
  14   H   :    0.000014111   -0.000017347   -0.000001540
  15   H   :   -0.000010486   -0.000005736   -0.000008837
  16   H   :    0.000001103   -0.000002125   -0.000005308
  17   H   :   -0.000009774    0.000011632    0.000013746
  18   H   :    0.000016928   -0.000008269    0.000004229
  19   H   :   -0.000015193    0.000003396    0.000005688

Norm of the cartesian gradient     ...    0.000276104
RMS gradient                       ...    0.000036571
MAX gradient                       ...    0.000148317

-------
TIMINGS
-------

Total SCF gradient time            ...       40.825 sec

One electron gradient       ....       0.199 sec  (  0.5%)
Prescreening matrices       ....       0.435 sec  (  1.1%)
Two electron gradient       ....      20.839 sec  ( 51.0%)
XC gradient                 ....       4.255 sec  ( 10.4%)
           ************************************************************
           *              Shut down parallel processing               *
           ************************************************************
------------------------------------------------------------------------------
                         ORCA GEOMETRY RELAXATION STEP
------------------------------------------------------------------------------

Reading the OPT-File                    .... done
Getting information on internals        .... done
Copying old internal coords+grads       .... done
Making the new internal coordinates     .... (new redundants).... done
Validating the new internal coordinates .... (new redundants).... done
Calculating the B-matrix                .... done
Calculating the G,G- and P matrices     .... done
Transforming gradient to internals      .... done
Projecting the internal gradient        .... done
Number of atoms                         ....  19
Number of internal coordinates          ....  86
Current Energy                          ....  -327.202097992 Eh
Current gradient norm                   ....     0.000276104 Eh/bohr
Maximum allowed component of the step   ....  0.300
Current trust radius                    ....  0.300
Updating the Hessian (BFGS)             .... done
Forming the augmented Hessian           .... done
Diagonalizing the augmented Hessian     .... done
Last element of RFO vector              ....  0.999954669
Lowest eigenvalues of augmented Hessian:
 -0.000000886  0.007884385  0.010891549  0.012608682  0.014189355
Length of the computed step             ....  0.009521974
The final length of the internal step   ....  0.009521974
Converting the step to cartesian space:
 Initial RMS(Int)=    0.0010267809
Transforming coordinates:
 Iter   0:  RMS(Cart)=    0.0021101371 RMS(Int)=    0.0010266778
 Iter   1:  RMS(Cart)=    0.0000019056 RMS(Int)=    0.0000011774
 Iter   2:  RMS(Cart)=    0.0000000044 RMS(Int)=    0.0000000023
done
Storing new coordinates                 .... done

                                .--------------------.
          ----------------------|Geometry convergence|---------------------
          Item                value                 Tolerance   Converged
          -----------------------------------------------------------------
          Energy change      -0.00000071            0.00000100      YES
          RMS gradient        0.00002174            0.00003000      YES
          MAX gradient        0.00008190            0.00010000      YES
          RMS step            0.00102678            0.00060000      NO
          MAX step            0.00345783            0.00100000      NO
          ....................................................
          Max(Bonds)      0.0002      Max(Angles)    0.04
          Max(Dihed)        0.20      Max(Improp)    0.00
          -----------------------------------------------------------------

       The energies and gradients are converged
       and the convergence on bond distances, angles, dihedrals and impropers
       is acceptable.
       Convergence will therefore be signaled now


                    ***********************HURRAY********************
                    ***        THE OPTIMIZATION HAS CONVERGED     ***
                    *************************************************


    ---------------------------------------------------------------------------
                         Redundant Internal Coordinates

                          --- Optimized Parameters ---  
                            (Angstroem and degrees)

        Definition                    OldVal   dE/dq     Step     FinalVal
    ----------------------------------------------------------------------------
     1. B(C   1,C   0)                1.5126 -0.000063  0.0002    1.5128   
     2. B(O   2,C   1)                1.4129  0.000012 -0.0000    1.4129   
     3. B(C   3,C   1)                1.5018 -0.000030  0.0001    1.5019   
     4. B(C   4,C   3)                1.3309 -0.000046  0.0001    1.3310   
     5. B(C   5,C   4)                1.4849  0.000006 -0.0000    1.4849   
     6. B(N   6,C   5)                1.5233  0.000045 -0.0002    1.5231   
     7. B(H   7,C   0)                1.0920  0.000018 -0.0002    1.0918   
     8. B(H   8,C   0)                1.0902  0.000002 -0.0000    1.0902   
     9. B(H   9,C   0)                1.0949  0.000006 -0.0001    1.0948   
    10. B(H  10,C   1)                1.0982 -0.000008  0.0001    1.0982   
    11. B(H  11,O   2)                0.9619 -0.000002  0.0000    0.9620   
    12. B(H  12,C   3)                1.0897  0.000003  0.0000    1.0897   
    13. B(H  13,C   4)                1.0871  0.000005 -0.0000    1.0871   
    14. B(H  14,C   5)                1.0899 -0.000010  0.0001    1.0900   
    15. B(H  15,C   5)                1.0918  0.000002 -0.0000    1.0917   
    16. B(H  16,N   6)                1.0223  0.000001  0.0000    1.0223   
    17. B(H  17,N   6)                1.0225  0.000001 -0.0000    1.0225   
    18. B(H  18,N   6)                1.0219  0.000003  0.0000    1.0220   
    19. A(C   1,C   0,H   9)          111.36  0.000082   -0.04    111.33   
    20. A(H   8,C   0,H   9)          108.22 -0.000038    0.01    108.23   
    21. A(C   1,C   0,H   7)          111.78  0.000013   -0.00    111.78   
    22. A(H   7,C   0,H   9)          108.41 -0.000052    0.02    108.43   
    23. A(H   7,C   0,H   8)          107.67 -0.000032    0.02    107.69   
    24. A(C   1,C   0,H   8)          109.27  0.000021   -0.01    109.26   
    25. A(O   2,C   1,H  10)          104.84 -0.000001    0.01    104.85   
    26. A(C   0,C   1,C   3)          115.57  0.000031   -0.02    115.55   
    27. A(O   2,C   1,C   3)          108.32 -0.000019   -0.00    108.32   
    28. A(C   0,C   1,H  10)          108.68 -0.000022    0.02    108.70   
    29. A(C   0,C   1,O   2)          112.69  0.000011   -0.01    112.68   
    30. A(C   3,C   1,H  10)          105.99 -0.000004    0.01    106.00   
    31. A(C   1,O   2,H  11)          108.99  0.000060   -0.02    108.97   
    32. A(C   1,C   3,C   4)          127.36  0.000026   -0.01    127.36   
    33. A(C   1,C   3,H  12)          113.12 -0.000004    0.00    113.12   
    34. A(C   4,C   3,H  12)          119.51 -0.000022    0.01    119.52   
    35. A(C   5,C   4,H  13)          117.08 -0.000000    0.00    117.08   
    36. A(C   3,C   4,C   5)          121.92 -0.000006    0.00    121.92   
    37. A(C   3,C   4,H  13)          120.92  0.000006   -0.00    120.92   
    38. A(C   4,C   5,N   6)          110.43 -0.000034    0.02    110.45   
    39. A(H  14,C   5,H  15)          109.06 -0.000006   -0.00    109.06   
    40. A(N   6,C   5,H  15)          105.46 -0.000002    0.01    105.46   
    41. A(C   4,C   5,H  15)          113.20  0.000014   -0.00    113.19   
    42. A(N   6,C   5,H  14)          106.04  0.000020   -0.01    106.03   
    43. A(C   4,C   5,H  14)          112.20  0.000008   -0.01    112.19   
    44. A(H  16,N   6,H  18)          107.31  0.000017   -0.00    107.31   
    45. A(C   5,N   6,H  18)          110.74 -0.000029    0.01    110.76   
    46. A(H  16,N   6,H  17)          108.53 -0.000002   -0.00    108.53   
    47. A(C   5,N   6,H  17)          112.20  0.000037   -0.02    112.18   
    48. A(H  17,N   6,H  18)          108.02  0.000002   -0.00    108.01   
    49. A(C   5,N   6,H  16)          109.89 -0.000025    0.01    109.90   
    50. D(C   3,C   1,C   0,H   7)    -61.30 -0.000002   -0.01    -61.31   
    51. D(C   3,C   1,C   0,H   8)    179.63  0.000015   -0.03    179.60   
    52. D(O   2,C   1,C   0,H   7)    173.41 -0.000011    0.01    173.42   
    53. D(H  10,C   1,C   0,H   7)     57.66 -0.000003    0.00     57.66   
    54. D(C   3,C   1,C   0,H   9)     60.13 -0.000002   -0.01     60.12   
    55. D(H  10,C   1,C   0,H   9)    179.09 -0.000003    0.00    179.09   
    56. D(H  10,C   1,C   0,H   8)    -61.41  0.000014   -0.02    -61.43   
    57. D(O   2,C   1,C   0,H   8)     54.34  0.000007   -0.01     54.33   
    58. D(O   2,C   1,C   0,H   9)    -65.16 -0.000011    0.01    -65.15   
    59. D(H  11,O   2,C   1,H  10)    160.01  0.000022   -0.14    159.87   
    60. D(H  11,O   2,C   1,C   0)     41.98  0.000042   -0.16     41.82   
    61. D(H  11,O   2,C   1,C   3)    -87.16  0.000009   -0.12    -87.29   
    62. D(C   4,C   3,C   1,H  10)   -110.43 -0.000020    0.18   -110.25   
    63. D(C   4,C   3,C   1,O   2)    137.51 -0.000009    0.17    137.68   
    64. D(C   4,C   3,C   1,C   0)     10.00 -0.000031    0.20     10.20   
    65. D(H  12,C   3,C   1,H  10)     68.70 -0.000017    0.18     68.88   
    66. D(H  12,C   3,C   1,O   2)    -43.36 -0.000006    0.17    -43.19   
    67. D(H  12,C   3,C   1,C   0)   -170.87 -0.000028    0.20   -170.67   
    68. D(H  13,C   4,C   3,H  12)   -178.28 -0.000005    0.02   -178.26   
    69. D(H  13,C   4,C   3,C   1)      0.81 -0.000002    0.02      0.82   
    70. D(C   5,C   4,C   3,H  12)     -1.58 -0.000006    0.03     -1.55   
    71. D(C   5,C   4,C   3,C   1)    177.51 -0.000003    0.03    177.53   
    72. D(H  15,C   5,C   4,H  13)     44.99 -0.000000   -0.05     44.94   
    73. D(H  15,C   5,C   4,C   3)   -131.83  0.000001   -0.07   -131.89   
    74. D(H  14,C   5,C   4,H  13)    168.95  0.000008   -0.06    168.88   
    75. D(H  14,C   5,C   4,C   3)     -7.87  0.000009   -0.07     -7.95   
    76. D(N   6,C   5,C   4,H  13)    -72.98  0.000016   -0.07    -73.05   
    77. D(N   6,C   5,C   4,C   3)    110.20  0.000017   -0.08    110.12   
    78. D(H  16,N   6,C   5,H  15)    178.25  0.000009   -0.03    178.22   
    79. D(H  16,N   6,C   5,H  14)     62.65  0.000008   -0.03     62.62   
    80. D(H  16,N   6,C   5,C   4)    -59.13  0.000005   -0.02    -59.15   
    81. D(H  18,N   6,C   5,H  15)    -63.37 -0.000003   -0.02    -63.39   
    82. D(H  18,N   6,C   5,H  14)   -178.97 -0.000004   -0.01   -178.98   
    83. D(H  18,N   6,C   5,C   4)     59.25 -0.000007   -0.01     59.24   
    84. D(H  17,N   6,C   5,H  15)     57.41  0.000004   -0.03     57.38   
    85. D(H  17,N   6,C   5,H  14)    -58.19  0.000003   -0.02    -58.21   
    86. D(H  17,N   6,C   5,C   4)   -179.97  0.000001   -0.02   -179.98   
    ----------------------------------------------------------------------------
                 *******************************************************
                 *** FINAL ENERGY EVALUATION AT THE STATIONARY POINT ***
                 ***               (AFTER    2 CYCLES)               ***
                 *******************************************************


           ************************************************************
           *        Program running with 8 parallel MPI-processes     *
           *              working on a common directory               *
           ************************************************************
           ************************************************************
           *              Shut down parallel processing               *
           ************************************************************


           ************************************************************
           *        Program running with 8 parallel MPI-processes     *
           *              working on a common directory               *
           ************************************************************
------------
SCF SETTINGS
------------
Hamiltonian:
 Density Functional     Method          .... DFT(GTOs)
 Exchange Functional    Exchange        .... PBE
   PBE kappa parameter  XKappa          ....  0.804000
 Correlation Functional Correlation     .... PBE
 LDA part of GGA corr.  LDAOpt          .... PW91-LDA
 Gradients option       PostSCFGGA      .... off
 Hybrid DFT is turned on
   Fraction HF Exchange ScalHFX         ....  0.250000
   Scaling of DF-GGA-X  ScalDFX         ....  0.750000
   Scaling of DF-GGA-C  ScalDFC         ....  1.000000
   Scaling of DF-LDA-C  ScalLDAC        ....  1.000000
   Perturbative correction              ....  0.000000
   NL short-range parameter             ....  6.900000


General Settings:
 Integral files         IntName         .... 5479_+
 Hartree-Fock type      HFTyp           .... RHF
 Total Charge           Charge          ....    1
 Multiplicity           Mult            ....    1
 Number of Electrons    NEL             ....   56
 Basis Dimension        Dim             ....  289
 Nuclear Repulsion      ENuc            ....    313.4228624883 Eh

Convergence Acceleration:
 DIIS                   CNVDIIS         .... on
   Start iteration      DIISMaxIt       ....    12
   Startup error        DIISStart       ....  0.200000
   # of expansion vecs  DIISMaxEq       ....     5
   Bias factor          DIISBfac        ....   1.050
   Max. coefficient     DIISMaxC        ....  10.000
 Newton-Raphson         CNVNR           .... off
 SOSCF                  CNVSOSCF        .... on
   Start iteration      SOSCFMaxIt      ....   150
   Startup grad/error   SOSCFStart      ....  0.003300
 Level Shifting         CNVShift        .... on
   Level shift para.    LevelShift      ....    0.2500
   Turn off err/grad.   ShiftErr        ....    0.0010
 Zerner damping         CNVZerner       .... off
 Static damping         CNVDamp         .... on
   Fraction old density DampFac         ....    0.7000
   Max. Damping (<1)    DampMax         ....    0.9800
   Min. Damping (>=0)   DampMin         ....    0.0000
   Turn off err/grad.   DampErr         ....    0.1000
 Fernandez-Rico         CNVRico         .... off

SCF Procedure:
 Maximum # iterations   MaxIter         ....   125
 SCF integral mode      SCFMode         .... Direct
   Integral package                     .... LIBINT
 Reset frequeny         DirectResetFreq ....    20
 Integral Threshold     Thresh          ....  2.500e-11 Eh
 Primitive CutOff       TCut            ....  2.500e-12 Eh

Convergence Tolerance:
 Convergence Check Mode ConvCheckMode   .... Total+1el-Energy
 Energy Change          TolE            ....  1.000e-08 Eh
 1-El. energy change                    ....  1.000e-05 Eh
 Orbital Gradient       TolG            ....  1.000e-05
 Orbital Rotation angle TolX            ....  1.000e-05
 DIIS Error             TolErr          ....  5.000e-07


Diagonalization of the overlap matrix:
Smallest eigenvalue                        ... 8.501e-05
Time for diagonalization                   ...    0.517 sec
Threshold for overlap eigenvalues          ... 1.000e-08
Number of eigenvalues below threshold      ... 0
Time for construction of square roots      ...    0.043 sec
Total time needed                          ...    0.560 sec

-------------------
DFT GRID GENERATION
-------------------

General Integration Accuracy     IntAcc      ...  4.340
Radial Grid Type                 RadialGrid  ... Gauss-Chebyshev
Angular Grid (max. acc.)         AngularGrid ... Lebedev-194
Angular grid pruning method      GridPruning ... 3 (G Style)
Weight generation scheme         WeightScheme... Becke
Basis function cutoff            BFCut       ...    1.0000e-11
Integration weight cutoff        WCut        ...    1.0000e-14
Grids for H and He will be reduced by one unit

# of grid points (after initial pruning)     ...  41422 (   0.0 sec)
# of grid points (after weights+screening)   ...  38052 (   0.3 sec)
nearest neighbour list constructed           ...    0.0 sec
Grid point re-assignment to atoms done       ...    0.0 sec
Grid point division into batches done        ...    0.1 sec
Reduced shell lists constructed in    0.3 sec

Total number of grid points                  ...    38052
Total number of batches                      ...      606
Average number of points per batch           ...       62
Average number of grid points per atom       ...     2003
Average number of shells per batch           ...    84.65 (67.72%)
Average number of basis functions per batch  ...   198.47 (68.67%)
Average number of large shells per batch     ...    67.45 (79.69%)
Average number of large basis fcns per batch ...   160.08 (80.66%)
Maximum spatial batch extension              ...  12.55, 14.53, 16.46 au
Average spatial batch extension              ...   0.22,  0.24,  0.25 au

Time for grid setup =    1.280 sec

--------------
SCF ITERATIONS
--------------
ITER       Energy         Delta-E        Max-DP      RMS-DP      [F,P]     Damp
               ***  Starting incremental Fock matrix formation  ***
                      *** Initiating the SOSCF procedure ***
                      *** Re-Reading the Fockian *** 
                      *** Removing any level shift *** 
ITER      Energy       Delta-E        Grad      Rot      Max-DP    RMS-DP
  0   -327.20231667 -327.2023166686  0.000185  0.000185  0.000739  0.000015
               *** Restarting incremental Fock matrix formation ***
  1   -327.20232070  -0.0000040353  0.000093  0.000239  0.000319  0.000006
  2   -327.20232123  -0.0000005283  0.000018  0.000067  0.000072  0.000002
  3   -327.20232124  -0.0000000030  0.000016  0.000024  0.000029  0.000001
  4   -327.20232125  -0.0000000178  0.000004  0.000011  0.000010  0.000000
  5   -327.20232125  -0.0000000008  0.000005  0.000007  0.000006  0.000000
                  ***Gradient check signals convergence***
              ***Rediagonalizing the Fockian in SOSCF/NRSCF***

               *****************************************************
               *                     SUCCESS                       *
               *           SCF CONVERGED AFTER   6 CYCLES          *
               *****************************************************

Setting up the final grid:

General Integration Accuracy     IntAcc      ...  5.010
Radial Grid Type                 RadialGrid  ... Gauss-Chebyshev
Angular Grid (max. acc.)         AngularGrid ... Lebedev-434
Angular grid pruning method      GridPruning ... 3 (G Style)
Weight generation scheme         WeightScheme... Becke
Basis function cutoff            BFCut       ...    1.0000e-11
Integration weight cutoff        WCut        ...    1.0000e-14
Grids for H and He will be reduced by one unit

# of grid points (after initial pruning)     ... 155226 (   0.0 sec)
# of grid points (after weights+screening)   ... 140973 (   6.5 sec)
nearest neighbour list constructed           ...    0.0 sec
Grid point re-assignment to atoms done       ...    0.0 sec
Grid point division into batches done        ...    1.3 sec
Reduced shell lists constructed in    1.7 sec

Total number of grid points                  ...   140973
Total number of batches                      ...     2213
Average number of points per batch           ...       63
Average number of grid points per atom       ...     7420
Average number of shells per batch           ...    81.86 (65.49%)
Average number of basis functions per batch  ...   192.52 (66.62%)
Average number of large shells per batch     ...    64.63 (78.95%)
Average number of large basis fcns per batch ...   153.09 (79.52%)
Maximum spatial batch extension              ...  12.76, 16.59, 15.33 au
Average spatial batch extension              ...   0.16,  0.16,  0.16 au

Final grid set up in    9.7 sec
Final integration                            ... done (   1.3 sec)
Change in XC energy                          ...     0.000223061
Integrated number of electrons               ...    56.000004267
Previous integrated no of electrons          ...    55.998829103
Total Energy       :         -327.20209819 Eh           -8903.62174 eV
  Last Energy change         ...    2.0879e-10  Tolerance :   1.0000e-08
  Last MAX-Density change    ...    2.7813e-06  Tolerance :   1.0000e-07
             **** THE GBW FILE WAS UPDATED (5479_+.gbw) ****
             **** DENSITY FILE WAS UPDATED (5479_+.scfp.tmp) ****
             **** ENERGY FILE WAS UPDATED (5479_+.en.tmp) ****
Total SCF time: 0 days 0 hours 1 min 8 sec 
           ************************************************************
           *              Shut down parallel processing               *
           ************************************************************

-------------------------   --------------------
FINAL SINGLE POINT ENERGY      -327.202098192960
-------------------------   --------------------

                                *** OPTIMIZATION RUN DONE ***

                            ***************************************
                            *     ORCA property calculations      *
                            ***************************************

                                    ---------------------
                                    Active property flags
                                    ---------------------




           ************************************************************
           *        Program running with 8 parallel MPI-processes     *
           *              working on a common directory               *
           ************************************************************

-------------------------------------------------------------------------------
                               ORCA SCF HESSIAN
-------------------------------------------------------------------------------

Hessian of the Kohn-Sham DFT energy:
Kohn-Sham wavefunction type                      ... RKS
Hartree-Fock exchange scaling                    ...    0.250
Number of operators                              ...    1
Number of atoms                                  ...   19
Basis set dimensions                             ...  289
Integral neglect threshold                       ... 2.5e-11
Integral primitive cutoff                        ... 2.5e-12

Setting up DFT Hessian calculations              ... 
Electron density on the grid                     ... found on disk
Electron density on the final grid               ... found on disk
Building xc-kernel on the grid                   ... done   (      0.0 sec)
Building xc-kernel on the final grid             ... done   (      0.1 sec)
                                                     done   (     50.5 sec)

Nuclear repulsion Hessian                        ... done   (      0.0 sec)

----------------------------------------------
Forming right-hand sides of CP-SCF equations     ...
----------------------------------------------
One electron integral derivatives                ... done   (      0.3 sec)
Transforming the overlap derivative matrices     ... done   (      1.1 sec)
Making the Q(x) pseudodensities                  ... done   (      0.7 sec)
Adding the E*S(x)*S(y) terms to the Hessian      ... done   (      0.0 sec)
Calculating energy weighted overlap derivatives  ... done   (      0.0 sec)
Two electron integral derivatives                ... done   (     52.7 sec)
Exchange-correlation integral derivatives        ... done   (     64.5 sec)
tr(F(y)Q(x)) contribution to the Hessian         ... done   (      0.0 sec)
Response fock operator R(S(x))                   ... done   (    182.0 sec)
XC Response fock operator R(S(x))                ... done   (     42.6 sec)
tr(F(y)S(x)) contribution to the Hessian         ... done   (      0.0 sec)
Transforming and finalizing RHSs                 ... done   (      0.2 sec)

----------------------------------------------
Solving the CP-SCF equations                     ...
----------------------------------------------
     CP-SCF ITERATION   0: 
     CP-SCF ITERATION   1:      0.001376650
     CP-SCF ITERATION   2:      0.000163578
     CP-SCF ITERATION   3:      0.000021251
     CP-SCF ITERATION   4:      0.000003071
     CP-SCF ITERATION   5:      0.000000165
     CP-SCF ITERATION   6:      0.000000011
     CP-SCF ITERATION   7:      0.000000007

                                                 ... done   (   1776.1 sec)
Forming perturbed density Hessian contributions  ... done   (      0.6 sec)
Making the perturbed densities                   ... done   (      0.1 sec)
2nd integral derivative contribs                 ... done   (    262.4 sec)
Exchange-correlation Hessian                     ... done   (     31.9 sec)
Dipol derivatives                                ... done   (     56.3 sec)

Total SCF Hessian time: 0 days 0 hours 42 min 4 sec 

Writing the Hessian file to the disk             ... done

           ************************************************************
           *              Shut down parallel processing               *
           ************************************************************

-----------------------
VIBRATIONAL FREQUENCIES
-----------------------

   0:         0.00 cm**-1
   1:         0.00 cm**-1
   2:         0.00 cm**-1
   3:         0.00 cm**-1
   4:         0.00 cm**-1
   5:         0.00 cm**-1
   6:        51.23 cm**-1
   7:       111.63 cm**-1
   8:       142.30 cm**-1
   9:       165.55 cm**-1
  10:       228.97 cm**-1
  11:       259.54 cm**-1
  12:       271.63 cm**-1
  13:       336.25 cm**-1
  14:       392.61 cm**-1
  15:       447.30 cm**-1
  16:       456.94 cm**-1
  17:       602.33 cm**-1
  18:       822.43 cm**-1
  19:       834.55 cm**-1
  20:       875.65 cm**-1
  21:       879.85 cm**-1
  22:       964.36 cm**-1
  23:       990.18 cm**-1
  24:      1018.39 cm**-1
  25:      1047.12 cm**-1
  26:      1084.66 cm**-1
  27:      1115.18 cm**-1
  28:      1143.36 cm**-1
  29:      1186.15 cm**-1
  30:      1277.71 cm**-1
  31:      1310.22 cm**-1
  32:      1325.75 cm**-1
  33:      1350.29 cm**-1
  34:      1362.53 cm**-1
  35:      1395.00 cm**-1
  36:      1398.92 cm**-1
  37:      1414.65 cm**-1
  38:      1484.91 cm**-1
  39:      1487.98 cm**-1
  40:      1490.68 cm**-1
  41:      1494.36 cm**-1
  42:      1652.20 cm**-1
  43:      1661.44 cm**-1
  44:      1727.28 cm**-1
  45:      3030.95 cm**-1
  46:      3048.57 cm**-1
  47:      3094.69 cm**-1
  48:      3125.72 cm**-1
  49:      3148.97 cm**-1
  50:      3152.83 cm**-1
  51:      3155.70 cm**-1
  52:      3174.72 cm**-1
  53:      3416.68 cm**-1
  54:      3506.65 cm**-1
  55:      3508.87 cm**-1
  56:      3845.74 cm**-1


------------
NORMAL MODES
------------

These modes are the cartesian displacements weighted by the diagonal matrix
M(i,i)=1/sqrt(m[i]) where m[i] is the mass of the displaced atom
Thus, these vectors are normalized but *not* orthogonal

                  0          1          2          3          4          5    
      0       0.000000   0.000000   0.000000   0.000000   0.000000   0.000000
      1       0.000000   0.000000   0.000000   0.000000   0.000000   0.000000
      2       0.000000   0.000000   0.000000   0.000000   0.000000   0.000000
      3       0.000000   0.000000   0.000000   0.000000   0.000000   0.000000
[...]
     18       0.027524   0.008865   0.017150  -0.000018  -0.000033   0.000164
     19       0.027790   0.032313   0.001873  -0.000003  -0.000027  -0.001337
     20       0.029379  -0.037675  -0.015358  -0.000004   0.000006   0.001216
     21      -0.000273   0.000761  -0.012964  -0.049200   0.335846   0.001241
     22       0.001027   0.000884  -0.015775   0.002730  -0.030594  -0.000019
     23       0.000387  -0.000044  -0.001197  -0.044123   0.346694   0.001450
     24      -0.000075  -0.001331   0.008764  -0.030900   0.180078  -0.000021
     25      -0.001295  -0.000304   0.067648  -0.013543   0.104804   0.000033
     26      -0.000475  -0.000616   0.022686   0.049251  -0.335688  -0.000266
     27       0.000359   0.000184   0.016133   0.182941  -0.505802   0.001558
     28       0.000045   0.000333   0.013281  -0.178008   0.503970  -0.001519
     29       0.001049  -0.001560  -0.013607  -0.066434   0.183488  -0.000538
     30       0.000031   0.002503  -0.066975  -0.682751  -0.180829  -0.003105
     31      -0.000331   0.002674  -0.079104   0.626632   0.163295   0.003027
     32       0.001571   0.000588   0.053929   0.236063   0.062493   0.000959
     33       0.000090  -0.000548   0.000962   0.007581  -0.002945  -0.000033
     34       0.000080  -0.000139  -0.000637  -0.012368  -0.000777   0.000099
     35      -0.000731  -0.000823  -0.016427  -0.005873  -0.004372  -0.000001
     36       0.001872   0.009448  -0.245432  -0.016421  -0.000756   0.009287
     37       0.001706   0.003945  -0.186848  -0.023963   0.000354   0.013363
     38      -0.006057  -0.009404   0.322898  -0.009749   0.000665   0.002349
     39      -0.009788  -0.005034   0.233416   0.006440  -0.003070   0.004157
     40       0.001406  -0.013425   0.222036   0.010499  -0.004808   0.003834
     41       0.016428   0.013617  -0.373653   0.003002  -0.000106   0.002300
     42      -0.037038  -0.014916  -0.087439   0.000637   0.000281  -0.218895
     43       0.029601   0.014316  -0.014883   0.001493   0.000213  -0.496891
     44       0.015933   0.004536   0.129973   0.000952  -0.000198  -0.183684
     45       0.031240  -0.035218   0.109103  -0.002926  -0.000615   0.458056
     46      -0.024225   0.017198   0.054844   0.000423  -0.000090  -0.107126
     47      -0.009041   0.013596  -0.113139  -0.002812   0.000015   0.666779
     48      -0.372190  -0.152534  -0.077319   0.000181  -0.000015  -0.007437
     49      -0.213721  -0.609659  -0.085520   0.000200  -0.000062  -0.000130
     50       0.288726  -0.022259   0.041244  -0.000069  -0.000074  -0.014144
     51      -0.433029  -0.151338  -0.056159   0.000299   0.000091  -0.004209
     52      -0.298327   0.323239   0.055322  -0.000065   0.000067   0.006310
     53      -0.491400   0.052036  -0.025271  -0.000036  -0.000064  -0.000964
     54       0.331670   0.201294  -0.001547   0.000082   0.000125   0.004775
     55       0.033000  -0.279731  -0.032522   0.000057   0.000272   0.008025
     56      -0.310058   0.591461   0.084155  -0.000138   0.000212   0.003253
                 48         49         50         51         52         53    
      0      -0.085034   0.000060   0.014271   0.001044  -0.000545   0.000024
      1       0.027518  -0.000277   0.014353   0.002233   0.000660  -0.000020
      2      -0.010964  -0.004238  -0.088683  -0.012531  -0.003374   0.000003
      3      -0.006717  -0.001417   0.001317  -0.000167  -0.000504  -0.000059
      4       0.006574   0.001981  -0.000811  -0.000148  -0.000023  -0.000026
      5       0.001481   0.002288  -0.001987  -0.000360   0.000106   0.000078
      6       0.000375  -0.000302   0.000128   0.000058   0.000036   0.000016
      7      -0.000226  -0.000219  -0.000211  -0.000010   0.000011  -0.000026
      8       0.000180  -0.000293   0.000479   0.000036  -0.000064  -0.000070
      9      -0.000137   0.044231  -0.001481  -0.004574  -0.006097  -0.000007
     10      -0.000387   0.069013  -0.002293  -0.006532  -0.007781   0.000082
     11      -0.000110   0.023862  -0.001005  -0.000445   0.000927  -0.000119
     12       0.001074  -0.006401   0.004557  -0.019548  -0.041022  -0.000056
     13       0.001306  -0.011449   0.006769  -0.028739  -0.060391  -0.000420
     14       0.000281  -0.009666   0.002630  -0.009660  -0.022248   0.000014
     15      -0.000211   0.001039  -0.005842   0.047367  -0.021865  -0.001410
     16      -0.000332   0.002081  -0.005921   0.048016  -0.023375   0.001375
     17      -0.000122   0.000594  -0.006332   0.052537  -0.026590   0.000180
     18      -0.000006  -0.000156   0.000178  -0.001508   0.000431  -0.033590
     19       0.000033  -0.000226   0.000239  -0.001759   0.000299   0.019162
     20      -0.000014   0.000266   0.000168  -0.001627   0.000783   0.011963
     21       0.500799   0.019957   0.323166   0.052055   0.020306  -0.000250
     22      -0.027214  -0.001097  -0.019505  -0.003294  -0.001789  -0.000022
     23       0.542407   0.020369   0.320525   0.053049   0.022554  -0.000149
     24       0.116178  -0.015408  -0.395097  -0.053560  -0.011419   0.000175
     25       0.095133  -0.009150  -0.252513  -0.033725  -0.006119   0.000169
     26      -0.256131   0.028772   0.721768   0.097454   0.020818  -0.000276
     27       0.397123  -0.007691  -0.097365  -0.010868  -0.002110  -0.000153
     28      -0.407816   0.007486   0.102598   0.011381   0.001734   0.000096
     29      -0.154583   0.002230   0.020605   0.001656  -0.000212   0.000103
     30       0.068259   0.021452  -0.014775   0.000855   0.004365  -0.000010
     31      -0.065579  -0.018183   0.013943  -0.000456  -0.003408   0.000136
     32      -0.024269  -0.009672   0.007151  -0.000022  -0.001573  -0.000155
     33       0.002990  -0.000030   0.000613   0.000007  -0.000295  -0.000265
     34       0.002004   0.001401   0.002333   0.000414   0.000236   0.000669
     35       0.003765  -0.000060  -0.000960  -0.000072   0.000133   0.000089
     36       0.002299  -0.526146   0.013758   0.050286   0.068369   0.000722
     37       0.003776  -0.799218   0.020777   0.076717   0.105337  -0.000175
     38       0.001149  -0.225227   0.006508   0.019752   0.031463   0.000394
     39      -0.011384   0.082406  -0.054363   0.231993   0.489159   0.001628
     40      -0.014558   0.118582  -0.078557   0.337502   0.702534   0.002319
     41      -0.004411   0.037966  -0.024085   0.112159   0.226741   0.000870
     42       0.001913  -0.012077   0.034037  -0.273508   0.139584   0.000597
     43       0.004536  -0.025585   0.078621  -0.634665   0.318244  -0.007917
     44       0.001463  -0.005662   0.026992  -0.220053   0.106138  -0.003596
     45       0.000449  -0.001791   0.034422  -0.280726   0.129239   0.008503
     46      -0.000170  -0.001072  -0.009258   0.075854  -0.036467  -0.003209
     47       0.000392   0.000076   0.050403  -0.414125   0.198978   0.005558
     48       0.000269  -0.000915  -0.000427   0.005043  -0.002361   0.349838
     49       0.000051   0.000842  -0.000199   0.000829  -0.001032  -0.081968
     50       0.000231  -0.000578  -0.001345   0.014298  -0.007229   0.453936
     51      -0.000006  -0.000114   0.000275  -0.000799  -0.000157   0.303026
     52      -0.000082   0.001148  -0.000160   0.001570   0.000952   0.287379
     53      -0.000019  -0.000447  -0.000173  -0.000374   0.000239  -0.446293
     54      -0.000137   0.000336  -0.001539   0.011843  -0.006752  -0.179351
     55      -0.000187   0.000450  -0.002187   0.015754  -0.001314  -0.475130
     56      -0.000242   0.000203  -0.000844   0.006314   0.001906  -0.177453
                  54         55         56    
      0      -0.000019   0.000004   0.000510
      1       0.000023  -0.000014  -0.000678
      2      -0.000004  -0.000023  -0.000071
      3       0.000026  -0.000022  -0.000723
      4      -0.000033  -0.000041   0.001928
      5       0.000005  -0.000007   0.001297
      6       0.000003   0.000030  -0.034156
      7       0.000029   0.000005   0.052375
      8       0.000022  -0.000007  -0.001521
      9      -0.000071   0.000039   0.000217
     10      -0.000079   0.000046   0.000061
     11      -0.000213   0.000170   0.000146
     12       0.000011  -0.000470  -0.000116
     13       0.000085  -0.000612  -0.000005
     14      -0.000084  -0.000311   0.000093
     15       0.001264   0.000667   0.000019
     16      -0.000082   0.001388   0.000051
     17       0.001155   0.001033  -0.000050
     18       0.013774   0.047121  -0.000058
     19      -0.020951   0.065091   0.000031
     20       0.077148   0.009082   0.000015
     21       0.000171   0.000297   0.002275
     22      -0.000036  -0.000060   0.001798
     23       0.000136   0.000185   0.001925
     24      -0.000026  -0.000018  -0.000569
     25      -0.000016   0.000074  -0.000731
     26       0.000035   0.000077  -0.000068
     27       0.000090  -0.000255  -0.004535
     28      -0.000164   0.000191   0.000810
     29      -0.000077  -0.000058   0.000910
     30       0.000194  -0.000070   0.008879
     31      -0.000018   0.000203  -0.007827
     32      -0.000113  -0.000035  -0.003602
     33      -0.000033  -0.000274   0.537209
     34      -0.000654   0.000072  -0.840975
     35       0.000222   0.000009   0.007667
     36       0.000284   0.000379  -0.000132
     37       0.001770   0.000781  -0.000280
     38       0.000320   0.000235  -0.000286
     39       0.000139   0.003001   0.000506
     40      -0.000155   0.003917  -0.000088
     41       0.000179   0.002108   0.000139
     42      -0.001608  -0.004640  -0.000074
     43      -0.003700  -0.018742  -0.000011
     44      -0.002372  -0.007509  -0.000069
     45      -0.012693  -0.005348   0.000016
     46       0.003808   0.000398   0.000042
     47      -0.013377  -0.005630   0.000148
     48      -0.476442  -0.154222   0.000585
     49       0.113385   0.053495  -0.000240
     50      -0.592406  -0.204513   0.000482
     51       0.318881  -0.237099  -0.000097
     52       0.288907  -0.214137   0.000088
     53      -0.450377   0.359114   0.000025
     54      -0.034860  -0.259606  -0.000025
     55      -0.111431  -0.739893  -0.000481
     56      -0.024774  -0.280347  -0.000184


-----------
IR SPECTRUM
-----------

 Mode    freq (cm**-1)   T**2         TX         TY         TZ
-------------------------------------------------------------------
   6:        51.23    6.245724  (  0.239939   1.030293   2.264211)
   7:       111.63   16.974823  (  0.747333   2.609445  -3.099534)
   8:       142.30    6.071501  (  0.817115   0.383280  -2.292798)
   9:       165.55    0.267558  ( -0.199790  -0.310173   0.362539)
  10:       228.97    1.833538  (  0.544608   0.906675  -0.845506)
  11:       259.54   76.261382  ( -6.331772  -4.405290   4.094321)
  12:       271.63   24.278573  ( -3.242070  -2.621706   2.625682)
  13:       336.25    4.105402  (  1.254584   0.118014  -1.586661)
  14:       392.61   12.612614  (  2.365072   0.667764  -2.563813)
  15:       447.30    7.930623  (  0.302908   1.985576  -1.973919)
  16:       456.94    3.124410  ( -1.450182   0.908041   0.443670)
  17:       602.33    5.835272  (  2.275403  -0.423782   0.691538)
  18:       822.43    0.355075  ( -0.092186   0.585590  -0.060509)
  19:       834.55   18.684857  ( -0.726004   0.323193   4.248920)
  20:       875.65   27.923912  (  5.145778   0.630072  -1.023665)
  21:       879.85   24.039720  (  1.868196  -1.181157  -4.376578)
  22:       964.36    6.043755  ( -1.029854   1.742490  -1.395308)
  23:       990.18    8.504486  ( -1.056499   2.681265   0.446225)
  24:      1018.39   15.682283  (  2.915088  -2.511849  -0.935500)
  25:      1047.12   52.996549  ( -5.117449   1.687157  -4.895075)
  26:      1084.66   18.484441  (  3.147854  -1.907233   2.222143)
  27:      1115.18   60.671365  (  4.446686   0.404480   6.382378)
  28:      1143.36   21.518879  ( -1.959284  -2.570121   3.327846)
  29:      1186.15   30.810320  ( -0.351307   1.077249  -5.433824)
  30:      1277.71   12.843413  ( -2.759933  -1.561185  -1.669996)
  31:      1310.22   10.547630  (  0.472550  -0.475906  -3.177710)
  32:      1325.75    8.029151  ( -0.168960   1.066752   2.619665)
  33:      1350.29    3.704186  (  0.641046   0.309678   1.788112)
  34:      1362.53   27.392589  ( -1.730229  -1.092096   4.817284)
  35:      1395.00   23.650183  (  0.837957  -0.845008   4.715291)
  36:      1398.92   21.607443  ( -3.619901  -0.882018   2.779532)
  37:      1414.65   41.268480  ( -2.169525  -3.566132  -4.883067)
  38:      1484.91    0.644918  ( -0.481224   0.570755  -0.295940)
  39:      1487.98   15.370783  (  1.763497   2.890667  -1.976084)
  40:      1490.68   15.950797  ( -3.716167   1.375657  -0.498468)
  41:      1494.36  148.685608  ( -9.667331   6.111509   4.228212)
  42:      1652.20   50.443093  ( -4.557442  -3.755740  -3.945533)
  43:      1661.44   39.199495  ( -1.410782  -3.291962   5.135385)
  44:      1727.28   29.311774  (  2.355580  -0.150690  -4.872403)
  45:      3030.95    4.638146  (  0.506450  -0.894296   1.892588)
  46:      3048.57   10.457857  (  1.031903  -2.984829  -0.695580)
  47:      3094.69    3.759600  (  0.700248   0.774943  -1.633621)
  48:      3125.72   13.520587  ( -3.195940   1.535688  -0.973763)
  49:      3148.97    3.734956  (  0.948682   1.484366  -0.794742)
  50:      3152.83    4.235018  (  0.352447   0.203031  -2.017319)
  51:      3155.70    0.149442  ( -0.265175  -0.240904  -0.145222)
  52:      3174.72    0.808386  ( -0.423832  -0.770351  -0.187914)
  53:      3416.68   38.168713  (  4.922769  -2.375923  -2.879244)
  54:      3506.65   86.330024  ( -1.646638   2.595920  -8.768113)
  55:      3508.87   90.071897  ( -5.124049  -7.818751  -1.638035)
  56:      3845.74   38.202443  (  3.546484  -4.086679   2.987299)

The first frequency considered to be a vibration is 6
The total number of vibrations considered is 51


--------------------------
THERMOCHEMISTRY AT 298.15K
--------------------------

Temperature         ... 298.15 K
Pressure            ... 1.00 atm
Total Mass          ... 102.16 AMU

Throughout the following assumptions are being made:
  (1) The electronic state is orbitally nondegenerate
  (2) There are no thermally accessible electronically excited states
  (3) Hindered rotations indicated by low frequency modes) are not
      treated as such but are treated as vibrations and this may
      case some error
  (4) All equations used are the standard statistical mechanics
      equations for an ideal gas
  (5) All vibrations are strinctly harmonic


------------
INNER ENERGY
------------

The inner energy is: U= E(el) + E(ZPE) + E(vib) + E(rot) + E(trans)
    E(el)   - is the total energy from the electronic structure calculation
              = E(kin-el) + E(nuc-el) + E(el-el) + E(nuc-nuc)
    E(ZPE)  - the the zero temperature vibrational energy from the frequency calculation
    E(vib)  - the the finite temperature correction to E(ZPE) due to population
              of excietd vibrational states
    E(rot)  - is the rotational thermal energy
    E(trans)- is the translational thermal energy

Summary of contributions to the inner energy U:
Electronic energy                ...   -327.20209819 Eh
Zero point energy                ...      0.17421642 Eh     109.32 kcal/mol
Thermal vibrational correction   ...      0.00623492 Eh       3.91 kcal/mol
Thermal rotational correction    ...      0.00141627 Eh       0.89 kcal/mol
Thermal translational correction ...      0.00141627 Eh       0.89 kcal/mol
-----------------------------------------------------------------------
Total thermal energy                   -327.01881431 Eh


Summary of corrections to the electronic energy:
(perhaps to be used in another calculation)
Total thermal correction                  0.00906746 Eh       5.69 kcal/mol
Non-thermal (ZPE) correction              0.17421642 Eh     109.32 kcal/mol
-----------------------------------------------------------------------
Total correction                          0.18328388 Eh     115.01 kcal/mol


--------
ENTHALPY
--------

The enthalpy is H = U + kB*T
                kB is Boltzmann's constant
Total free energy                 ...   -327.01881431 Eh 
Thermal Enthalpy correction       ...      0.00094421 Eh       0.59 kcal/mol
-----------------------------------------------------------------------
Total Enthalpy                    ...   -327.01787010 Eh


-------
ENTROPY
-------

The entropy contributions are T*S = T*(S(el)+S(vib)+S(rot)+S(trans)
     S(el)   - electronic entropy
     S(vib)  - vibrational entropy
     S(rot)  - rotational entropy
     S(trans)- translational entropy
The entropies will be listed as mutliplied by the temperature to get
units of energy

Electronic entropy                ...      0.00000000 Eh      0.00 kcal/mol
Vibrational entropy               ...      0.01147924 Eh      7.20 kcal/mol
Rotational entropy                ...      0.01242677 Eh      7.80 kcal/mol
Translational entropy             ...      0.01890147 Eh     11.86 kcal/mol
-----------------------------------------------------------------------
Final entropy term                ...      0.04280748 Eh     26.86 kcal/mol


CAUTION: The rotational entropy is not quite correctly treated here
         because it includes a symmetry number that is not yet correctly
         implemented in ORCA!
For a nonlinear molecule the correct rotational entropy is:
    S(rot) = R*(ln(qrot/sn)+1.5)
    R    = 8.31441 J/mol/K = 1.987191683e-3 kcal/mol/K
    qrot = 348029.7002397
    sn is the rotational symmetry number. We have assumed 3 here
       if it is different for your molecule then you should correct
       the printed rotational entropy by manually evaluating the equation
       as given above

For convenience we print out the resulting values for sn=1 - 12:
 sn= 1  qrot/sn=  348029.7002 T*S(rot)=     8.45 kcal/mol T*S(tot)=    27.51 kcal/mol
 sn= 2  qrot/sn=  174014.8501 T*S(rot)=     8.04 kcal/mol T*S(tot)=    27.10 kcal/mol
 sn= 3  qrot/sn=  116009.9001 T*S(rot)=     7.80 kcal/mol T*S(tot)=    26.86 kcal/mol
 sn= 4  qrot/sn=   87007.4251 T*S(rot)=     7.63 kcal/mol T*S(tot)=    26.69 kcal/mol
 sn= 5  qrot/sn=   69605.9400 T*S(rot)=     7.50 kcal/mol T*S(tot)=    26.56 kcal/mol
 sn= 6  qrot/sn=   58004.9500 T*S(rot)=     7.39 kcal/mol T*S(tot)=    26.45 kcal/mol
 sn= 7  qrot/sn=   49718.5286 T*S(rot)=     7.30 kcal/mol T*S(tot)=    26.36 kcal/mol
 sn= 8  qrot/sn=   43503.7125 T*S(rot)=     7.22 kcal/mol T*S(tot)=    26.28 kcal/mol
 sn= 9  qrot/sn=   38669.9667 T*S(rot)=     7.15 kcal/mol T*S(tot)=    26.21 kcal/mol
 sn=10  qrot/sn=   34802.9700 T*S(rot)=     7.08 kcal/mol T*S(tot)=    26.15 kcal/mol
 sn=11  qrot/sn=   31639.0637 T*S(rot)=     7.03 kcal/mol T*S(tot)=    26.09 kcal/mol
 sn=12  qrot/sn=   29002.4750 T*S(rot)=     6.98 kcal/mol T*S(tot)=    26.04 kcal/mol


-------------------
GIBBS FREE ENTHALPY
-------------------

The Gibbs free enthalpy is G = H - T*S

Total enthalpy                    ...   -327.01787010 Eh 
Total entropy correction          ...     -0.04280748 Eh    -26.86 kcal/mol
-----------------------------------------------------------------------
Final Gibbs free enthalpy         ...   -327.06067758 Eh

For completeness - the Gibbs free enthalpy minus the electronic energy
G-E(el)                           ...      0.14142061 Eh     88.74 kcal/mol


Timings for individual modules:

Sum of individual times         ...     2885.375 sec (=  48.090 min)
GTO integral calculation        ...        6.915 sec (=   0.115 min)   0.2 %
SCF iterations                  ...      263.495 sec (=   4.392 min)   9.1 %
SCF Gradient evaluation         ...       88.863 sec (=   1.481 min)   3.1 %
Geometry relaxation             ...        0.147 sec (=   0.002 min)   0.0 %
Analytical frequency calculation...     2525.955 sec (=  42.099 min)  87.5 %
                             ****ORCA TERMINATED NORMALLY****
TOTAL RUN TIME: 0 days 0 hours 48 minutes 7 seconds 117 msec
