
                                 *****************
                                 * O   R   C   A *
                                 *****************

           --- An Ab Initio, DFT and Semiempirical electronic structure package ---

                  #######################################################
                  #                        -***-                        #
                  #  Department of molecular theory and spectroscopy    #
                  #              Directorship: Frank Neese              #
                  # Max Planck Institute for Chemical Energy Conversion #
                  #                  D-45470 Muelheim/Ruhr              #
                  #                       Germany                       #
                  #                                                     #
                  #                  All rights reserved                #
                  #                        -***-                        #
                  #######################################################


                         Program Version 3.0.3 - RELEASE   -


 With contributions from (in alphabetic order):
   Ute Becker             : Parallelization
   Dmytro Bykov           : SCF Hessian
   Dmitry Ganyushin       : Spin-Orbit,Spin-Spin,Magnetic field MRCI
   Andreas Hansen         : Spin unrestricted coupled pair/coupled cluster methods
   Dimitrios Liakos       : Extrapolation schemes; parallel MDCI
   Robert Izsak           : Overlap fitted RIJCOSX, COSX-SCS-MP3
   Christian Kollmar      : KDIIS, OOCD, Brueckner-CCSD(T), CCSD density
   Simone Kossmann        : Meta GGA functionals, TD-DFT gradient, OOMP2, MP2 Hessian
   Taras Petrenko         : DFT Hessian,TD-DFT gradient, ASA and ECA modules, normal mode analysis, Resonance Raman, ABS, FL, XAS/XES, NRVS
   Christoph Reimann      : Effective Core Potentials
   Michael Roemelt        : Restricted open shell CIS
   Christoph Riplinger    : Improved optimizer, TS searches, QM/MM, DLPNO-CCSD
   Barbara Sandhoefer     : DKH picture change effects
   Igor Schapiro          : Molecular dynamics
   Kantharuban Sivalingam : CASSCF convergence, NEVPT2
   Boris Wezisla          : Elementary symmetry handling
   Frank Wennmohs         : Technical directorship


 We gratefully acknowledge several colleagues who have allowed us to
 interface, adapt or use parts of their codes:
   Stefan Grimme, W. Hujo, H. Kruse, T. Risthaus : VdW corrections, initial TS optimization,
                                                   DFT functionals, gCP
   Ed Valeev                                     : LibInt (2-el integral package), F12 methods
   Garnet Chan, S. Sharma, R. Olivares           : DMRG
   Ulf Ekstrom                                   : XCFun DFT Library
   Mihaly Kallay                                 : mrcc  (arbitrary order and MRCC methods)
   Andreas Klamt, Michael Diedenhofen            : otool_cosmo (COSMO solvation model)
   Frank Weinhold                                : gennbo (NPA and NBO analysis)
   Christopher J. Cramer and Donald G. Truhlar   : smd solvation model


 Your calculation uses the libint2 library for the computation of 2-el integrals
 For citations please refer to: http://libint.valeyev.net

 This ORCA versions uses:
   CBLAS   interface :  Fast vector & matrix operations
   LAPACKE interface :  Fast linear algebra routines
   SCALAPACK package :  Parallel linear algebra routines


Your calculation utilizes the basis: Ahlrichs-TZV
Cite in your paper:
H - Kr: A. Schaefer, H. Horn and R. Ahlrichs, J. Chem. Phys. 97, 2571 (1992).

The def2-TZV basis will be loaded
Cite in your paper:
 	F. Weigend, R. Ahlrichs, Phys. Chem. Chem. Phys. 2005, 7, 3297.

================================================================================
                                        WARNINGS
                       Please study these warnings very carefully!
================================================================================
Now building the actual basis set
WARNING: Geometry optimizations can change the point-group symmetry!

WARNING: Geometry Optimization
  ===> : Switching off AutoStart
         For restart on a previous wavefunction, please use MOREAD


INFO   : the flag for use of LIBINT has been found!

================================================================================
                                       INPUT FILE
================================================================================
NAME = 5720_+.inp
|  1> ! NORI PBE0 def2-TZVP UseSym TightOPT Freq TightSCF Grid3 FinalGrid5 XYZFile
|  2> % pal
|  3>     nprocs 8
|  4> end
|  5> %method
|  6>     SymThresh 5.0e-2
|  7> end
|  8> % geom 
|  9>     MaxIter 10
| 10> end 
| 11> % maxcore 2000
| 12> % output
| 13>     printlevel mini
| 14>     print[ P_Basis ] 0
| 15>     print[ P_SCFInfo ] 1
| 16>     print[ P_SCFIterInfo ] 1
| 17>     print[ P_OrbEn ] 0
| 18>     print[ P_Cartesian ] 0
| 19> end
| 20> % elprop
| 21>     Dipole false
| 22> end
| 23> *xyz 1 1
| 24>  C        0.9068417120     0.9080522884     0.0940066623 
| 25>  N        2.2881595638     0.3797099303     0.2593040205 
| 26>  C        2.9233968233    -0.0763226466    -1.0041537024 
| 27>  C        4.3213427784    -0.5801750256    -0.7872786675 
| 28>  C        4.9487700068    -0.6175982756     0.3875933065 
| 29>  O        4.7878066639    -0.9667058391    -1.9742565117 
| 30>  C        6.1146442686    -1.4780112718    -2.0339001858 
| 31>  H        0.5271714621     1.2154540873     1.0665174264 
| 32>  H        0.2798031999     0.1220821498    -0.3221427762 
| 33>  H        0.9373418138     1.7597372481    -0.5827105982 
| 34>  H        2.8875929134     1.0941542089     0.6795973923 
| 35>  H        2.2863623056    -0.4018508238     0.9189988481 
| 36>  H        2.2957119929    -0.8629156936    -1.4284654917 
| 37>  H        2.9251491824     0.7662954030    -1.6989291781 
| 38>  H        5.9575778995    -0.9899139291     0.4859203842 
| 39>  H        4.4889193791    -0.2802789912     1.3072155101 
| 40>  H        6.2909122578    -1.7268095201    -3.0767450504 
| 41>  H        6.2073540026    -2.3753468893    -1.4177295025 
| 42>  H        6.8313717741    -0.7208064100    -1.7064418858 
| 43> *
| 44> 
| 45>                          ****END OF INPUT****
================================================================================

The point group is C1 - hence turning off symmetry
If this is a round-off problem, please increase the symmetry
        detection tolerance (%method SymThresh)


                       *****************************
                       * Geometry Optimization Run *
                       *****************************

Geometry optimization settings:
Update method            Update   .... BFGS
Choice of coordinates    CoordSys .... Redundant Internals
Initial Hessian          InHess   .... Almoef's Model

Convergence Tolerances:
Energy Change            TolE     ....  1.0000e-06 Eh
Max. Gradient            TolMAXG  ....  1.0000e-04 Eh/bohr
RMS Gradient             TolRMSG  ....  3.0000e-05 Eh/bohr
Max. Displacement        TolMAXD  ....  1.0000e-03 bohr
RMS Displacement         TolRMSD  ....  6.0000e-04 bohr

------------------------------------------------------------------------------
                        ORCA OPTIMIZATION COORDINATE SETUP
------------------------------------------------------------------------------

The optimization will be done in new redundant internal coordinates
Making redundant internal coordinates   ...  (new redundants) done
Evaluating the initial hessian          ...  (Almloef) done
Evaluating the coordinates              ...  done
Calculating the B-matrix                .... done
Calculating the G-matrix                .... done
Diagonalizing the G-matrix              .... done
Small eigenvalue found = 1.438e-02
The first mode is                       ....   31
The number of degrees of freedom        ....   51

    -----------------------------------------------------------------
                    Redundant Internal Coordinates


    -----------------------------------------------------------------
         Definition                    Initial Value    Approx d2E/dq
    -----------------------------------------------------------------
      1. B(N   1,C   0)                  1.4881         0.390236   
      2. B(C   2,N   1)                  1.4859         0.393475   
      3. B(C   3,C   2)                  1.5017         0.414477   
      4. B(C   4,C   3)                  1.3324         0.771926   
      5. B(O   5,C   3)                  1.3326         0.690877   
      6. B(C   6,O   5)                  1.4232         0.495350   
      7. B(H   7,C   0)                  1.0883         0.362340   
      8. B(H   8,C   0)                  1.0882         0.362533   
      9. B(H   9,C   0)                  1.0882         0.362450   
     10. B(H  10,N   1)                  1.0229         0.412626   
     11. B(H  11,N   1)                  1.0228         0.412893   
     12. B(H  12,C   2)                  1.0921         0.357288   
     13. B(H  13,C   2)                  1.0921         0.357309   
     14. B(H  14,C   4)                  1.0798         0.373841   
     15. B(H  15,C   4)                  1.0821         0.370697   
     16. B(H  16,C   6)                  1.0865         0.364751   
     17. B(H  17,C   6)                  1.0925         0.356858   
     18. B(H  18,C   6)                  1.0928         0.356370   
     19. A(H   7,C   0,H   8)          110.1653         0.291431   
     20. A(H   8,C   0,H   9)          110.0977         0.291445   
     21. A(N   1,C   0,H   8)          108.7183         0.325058   
     22. A(N   1,C   0,H   7)          108.9564         0.325030   
     23. A(N   1,C   0,H   9)          108.7188         0.325046   
     24. A(H   7,C   0,H   9)          110.1452         0.291421   
     25. A(C   2,N   1,H  10)          108.2522         0.329693   
     26. A(C   0,N   1,H  10)          109.9747         0.329243   
     27. A(C   0,N   1,C   2)          114.2896         0.364754   
     28. A(H  10,N   1,H  11)          105.6480         0.298728   
     29. A(C   2,N   1,H  11)          108.3417         0.329728   
     30. A(C   0,N   1,H  11)          109.9577         0.329278   
     31. A(N   1,C   2,C   3)          112.2191         0.370860   
     32. A(N   1,C   2,H  13)          107.7483         0.324725   
     33. A(H  12,C   2,H  13)          108.0262         0.290127   
     34. A(C   3,C   2,H  12)          110.4552         0.329491   
     35. A(N   1,C   2,H  12)          107.8003         0.324721   
     36. A(C   3,C   2,H  13)          110.4413         0.329494   
     37. A(C   2,C   3,C   4)          125.1074         0.420026   
     38. A(C   4,C   3,O   5)          127.7633         0.457551   
     39. A(C   2,C   3,O   5)          107.1292         0.409162   
     40. A(H  14,C   4,H  15)          115.2845         0.293898   
     41. A(C   3,C   4,H  15)          122.7167         0.368157   
     42. A(C   3,C   4,H  14)          121.9988         0.368691   
     43. A(C   3,O   5,C   6)          117.8958         0.419599   
     44. A(H  16,C   6,H  18)          109.8685         0.290950   
     45. A(O   5,C   6,H  18)          110.4844         0.337187   
     46. A(H  16,C   6,H  17)          109.8463         0.291013   
     47. A(O   5,C   6,H  17)          110.5226         0.337264   
     48. A(H  17,C   6,H  18)          110.1491         0.289953   
     49. A(O   5,C   6,H  16)          105.8870         0.338496   
     50. D(H  11,N   1,C   0,H   7)     57.9279         0.013928   
     51. D(H  11,N   1,C   0,H   8)    -62.1538         0.013928   
     52. D(C   2,N   1,C   0,H   7)   -179.9865         0.013928   
     53. D(C   2,N   1,C   0,H   8)     59.9317         0.013928   
     54. D(C   2,N   1,C   0,H   9)    -59.9287         0.013928   
     55. D(H  10,N   1,C   0,H   7)    -58.0049         0.013928   
     56. D(H  10,N   1,C   0,H   8)   -178.0867         0.013928   
     57. D(H  11,N   1,C   0,H   9)    177.9858         0.013928   
     58. D(H  10,N   1,C   0,H   9)     62.0530         0.013928   
     59. D(H  12,C   2,N   1,H  10)    178.0568         0.014156   
     60. D(H  12,C   2,N   1,C   0)    -59.0228         0.014156   
     61. D(C   3,C   2,N   1,H  11)    -57.9033         0.014156   
     62. D(C   3,C   2,N   1,H  10)     56.2108         0.014156   
     63. D(H  12,C   2,N   1,H  11)     63.9428         0.014156   
     64. D(C   3,C   2,N   1,C   0)    179.1312         0.014156   
     65. D(H  13,C   2,N   1,H  11)   -179.6966         0.014156   
     66. D(H  13,C   2,N   1,H  10)    -65.5826         0.014156   
     67. D(H  13,C   2,N   1,C   0)     57.3378         0.014156   
     68. D(O   5,C   3,C   2,H  13)    -60.1075         0.012714   
     69. D(O   5,C   3,C   2,H  12)     59.3313         0.012714   
     70. D(O   5,C   3,C   2,N   1)    179.6498         0.012714   
     71. D(C   4,C   3,C   2,H  13)    119.8034         0.012714   
     72. D(C   4,C   3,C   2,H  12)   -120.7577         0.012714   
     73. D(C   4,C   3,C   2,N   1)     -0.4393         0.012714   
     74. D(H  15,C   4,C   3,O   5)   -179.9932         0.042738   
     75. D(H  15,C   4,C   3,C   2)      0.1144         0.042738   
     76. D(H  14,C   4,C   3,O   5)     -0.0230         0.042738   
     77. D(H  14,C   4,C   3,C   2)   -179.9153         0.042738   
     78. D(C   6,O   5,C   3,C   4)     -0.4513         0.035655   
     79. D(C   6,O   5,C   3,C   2)    179.4565         0.035655   
     80. D(H  16,C   6,O   5,C   3)   -179.8655         0.019387   
     81. D(H  18,C   6,O   5,C   3)    -60.9489         0.019387   
     82. D(H  17,C   6,O   5,C   3)     61.2240         0.019387   
    -----------------------------------------------------------------

Number of atoms                         .... 19
Number of degrees of freedom            .... 82

         *************************************************************
         *                GEOMETRY OPTIMIZATION CYCLE   1            *
         *************************************************************


           ************************************************************
           *        Program running with 8 parallel MPI-processes     *
           *              working on a common directory               *
           ************************************************************
           ************************************************************
           *              Shut down parallel processing               *
           ************************************************************


           ************************************************************
           *        Program running with 8 parallel MPI-processes     *
           *              working on a common directory               *
           ************************************************************
------------
SCF SETTINGS
------------
Hamiltonian:
 Density Functional     Method          .... DFT(GTOs)
 Exchange Functional    Exchange        .... PBE
   PBE kappa parameter  XKappa          ....  0.804000
 Correlation Functional Correlation     .... PBE
 LDA part of GGA corr.  LDAOpt          .... PW91-LDA
 Gradients option       PostSCFGGA      .... off
 Hybrid DFT is turned on
   Fraction HF Exchange ScalHFX         ....  0.250000
   Scaling of DF-GGA-X  ScalDFX         ....  0.750000
   Scaling of DF-GGA-C  ScalDFC         ....  1.000000
   Scaling of DF-LDA-C  ScalLDAC        ....  1.000000
   Perturbative correction              ....  0.000000
   NL short-range parameter             ....  6.900000


General Settings:
 Integral files         IntName         .... 5720_+
 Hartree-Fock type      HFTyp           .... RHF
 Total Charge           Charge          ....    1
 Multiplicity           Mult            ....    1
 Number of Electrons    NEL             ....   56
 Basis Dimension        Dim             ....  289
 Nuclear Repulsion      ENuc            ....    324.3021969952 Eh

Convergence Acceleration:
 DIIS                   CNVDIIS         .... on
   Start iteration      DIISMaxIt       ....    12
   Startup error        DIISStart       ....  0.200000
   # of expansion vecs  DIISMaxEq       ....     5
   Bias factor          DIISBfac        ....   1.050
   Max. coefficient     DIISMaxC        ....  10.000
 Newton-Raphson         CNVNR           .... off
 SOSCF                  CNVSOSCF        .... on
   Start iteration      SOSCFMaxIt      ....   150
   Startup grad/error   SOSCFStart      ....  0.003300
 Level Shifting         CNVShift        .... on
   Level shift para.    LevelShift      ....    0.2500
   Turn off err/grad.   ShiftErr        ....    0.0010
 Zerner damping         CNVZerner       .... off
 Static damping         CNVDamp         .... on
   Fraction old density DampFac         ....    0.7000
   Max. Damping (<1)    DampMax         ....    0.9800
   Min. Damping (>=0)   DampMin         ....    0.0000
   Turn off err/grad.   DampErr         ....    0.1000
 Fernandez-Rico         CNVRico         .... off

SCF Procedure:
 Maximum # iterations   MaxIter         ....   125
 SCF integral mode      SCFMode         .... Direct
   Integral package                     .... LIBINT
 Reset frequeny         DirectResetFreq ....    20
 Integral Threshold     Thresh          ....  2.500e-11 Eh
 Primitive CutOff       TCut            ....  2.500e-12 Eh

Convergence Tolerance:
 Convergence Check Mode ConvCheckMode   .... Total+1el-Energy
 Energy Change          TolE            ....  1.000e-08 Eh
 1-El. energy change                    ....  1.000e-05 Eh
 Orbital Gradient       TolG            ....  1.000e-05
 Orbital Rotation angle TolX            ....  1.000e-05
 DIIS Error             TolErr          ....  5.000e-07


Diagonalization of the overlap matrix:
Smallest eigenvalue                        ... 1.204e-04
Time for diagonalization                   ...    0.924 sec
Threshold for overlap eigenvalues          ... 1.000e-08
Number of eigenvalues below threshold      ... 0
Time for construction of square roots      ...    0.056 sec
Total time needed                          ...    0.980 sec

-------------------
DFT GRID GENERATION
-------------------

General Integration Accuracy     IntAcc      ...  4.340
Radial Grid Type                 RadialGrid  ... Gauss-Chebyshev
Angular Grid (max. acc.)         AngularGrid ... Lebedev-194
Angular grid pruning method      GridPruning ... 3 (G Style)
Weight generation scheme         WeightScheme... Becke
Basis function cutoff            BFCut       ...    1.0000e-11
Integration weight cutoff        WCut        ...    1.0000e-14
Grids for H and He will be reduced by one unit

# of grid points (after initial pruning)     ...  41422 (   0.0 sec)
# of grid points (after weights+screening)   ...  38022 (   0.4 sec)
nearest neighbour list constructed           ...    0.0 sec
Grid point re-assignment to atoms done       ...    0.0 sec
Grid point division into batches done        ...    0.1 sec
Reduced shell lists constructed in    0.3 sec

Total number of grid points                  ...    38022
Total number of batches                      ...      604
Average number of points per batch           ...       62
Average number of grid points per atom       ...     2001
Average number of shells per batch           ...    92.99 (74.39%)
Average number of basis functions per batch  ...   218.60 (75.64%)
Average number of large shells per batch     ...    75.78 (81.49%)
Average number of large basis fcns per batch ...   177.91 (81.39%)
Maximum spatial batch extension              ...   2.47,  2.60,  2.65 au
Average spatial batch extension              ...   0.15,  0.14,  0.14 au

Time for grid setup =    1.249 sec

Loading Hartree-Fock densities                     ... done
Calculating cut-offs                               ... done
Setting up the integral package                    ... done
Initializing the effective Hamiltonian             ... done
Starting the Coulomb interaction                   ... done (   0.1 sec)
Reading the grid                                   ... done
Mapping shells                                     ... done
Starting the XC term evaluation                    ... done (   0.6 sec)
  promolecular density results
     # of electrons  =     56.993667651
     EX              =    -43.858405690
     EC              =     -1.875565620
     EX+EC           =    -45.733971311
Transforming the Hamiltonian                       ... done (   0.0 sec)
Diagonalizing the Hamiltonian                      ... done (   0.6 sec)
Back transforming the eigenvectors                 ... done (   0.0 sec)
Now organizing SCF variables                       ... done
--------------
SCF ITERATIONS
--------------
ITER       Energy         Delta-E        Max-DP      RMS-DP      [F,P]     Damp
               ***  Starting incremental Fock matrix formation  ***
  0   -327.0423933679   0.000000000000 0.03868497  0.00069687  0.1849851 0.7000
  1   -327.1086403326  -0.066246964622 0.02770465  0.00053252  0.1011887 0.7000
                               ***Turning on DIIS***
  2   -327.1389416339  -0.030301301287 0.04864770  0.00099043  0.0430583 0.0000
  3   -327.1834227706  -0.044481136742 0.01964924  0.00037351  0.0554694 0.0000
  4   -327.1936254327  -0.010202662078 0.00531389  0.00011503  0.0055726 0.0000
                      *** Initiating the SOSCF procedure ***
                           *** Shutting down DIIS ***
                      *** Re-Reading the Fockian *** 
                      *** Removing any level shift *** 
ITER      Energy       Delta-E        Grad      Rot      Max-DP    RMS-DP
  5   -327.19394933  -0.0003238929  0.000755  0.000755  0.001372  0.000041
               *** Restarting incremental Fock matrix formation ***
  6   -327.19398531  -0.0000359859  0.000321  0.001076  0.000967  0.000026
  7   -327.19398562  -0.0000003092  0.000367  0.000571  0.000402  0.000009
  8   -327.19398811  -0.0000024850  0.000097  0.000199  0.000214  0.000006
  9   -327.19398810   0.0000000083  0.000062  0.000083  0.000082  0.000002
 10   -327.19398830  -0.0000001985  0.000009  0.000025  0.000019  0.000000
 11   -327.19398829   0.0000000015  0.000010  0.000012  0.000011  0.000000
                  ***Gradient check signals convergence***
              ***Rediagonalizing the Fockian in SOSCF/NRSCF***

               *****************************************************
               *                     SUCCESS                       *
               *           SCF CONVERGED AFTER  12 CYCLES          *
               *****************************************************

Setting up the final grid:

General Integration Accuracy     IntAcc      ...  5.010
Radial Grid Type                 RadialGrid  ... Gauss-Chebyshev
Angular Grid (max. acc.)         AngularGrid ... Lebedev-434
Angular grid pruning method      GridPruning ... 3 (G Style)
Weight generation scheme         WeightScheme... Becke
Basis function cutoff            BFCut       ...    1.0000e-11
Integration weight cutoff        WCut        ...    1.0000e-14
Grids for H and He will be reduced by one unit

# of grid points (after initial pruning)     ... 155226 (   0.0 sec)
# of grid points (after weights+screening)   ... 140748 (   4.2 sec)
nearest neighbour list constructed           ...    0.0 sec
Grid point re-assignment to atoms done       ...    0.0 sec
Grid point division into batches done        ...    1.4 sec
Reduced shell lists constructed in    1.8 sec

Total number of grid points                  ...   140748
Total number of batches                      ...     2208
Average number of points per batch           ...       63
Average number of grid points per atom       ...     7408
Average number of shells per batch           ...    92.32 (73.86%)
Average number of basis functions per batch  ...   217.81 (75.37%)
Average number of large shells per batch     ...    74.48 (80.67%)
Average number of large basis fcns per batch ...   175.94 (80.78%)
Maximum spatial batch extension              ...   2.12,  3.05,  2.19 au
Average spatial batch extension              ...   0.10,  0.10,  0.10 au

Final grid set up in    6.9 sec
Final integration                            ... done (   1.2 sec)
Change in XC energy                          ...     0.000162983
Integrated number of electrons               ...    55.999980994
Previous integrated no of electrons          ...    55.999020221
Total Energy       :         -327.19382531 Eh           -8903.39663 eV
  Last Energy change         ...   -3.1570e-09  Tolerance :   1.0000e-08
  Last MAX-Density change    ...    1.9070e-06  Tolerance :   1.0000e-07
             **** THE GBW FILE WAS UPDATED (5720_+.gbw) ****
             **** DENSITY FILE WAS UPDATED (5720_+.scfp.tmp) ****
             **** ENERGY FILE WAS UPDATED (5720_+.en.tmp) ****
Total SCF time: 0 days 0 hours 2 min 4 sec 
           ************************************************************
           *              Shut down parallel processing               *
           ************************************************************

-------------------------   --------------------
FINAL SINGLE POINT ENERGY      -327.193825314064
-------------------------   --------------------



           ************************************************************
           *        Program running with 8 parallel MPI-processes     *
           *              working on a common directory               *
           ************************************************************
------------------------------------------------------------------------------
                         ORCA SCF GRADIENT CALCULATION
------------------------------------------------------------------------------

Gradient of the Kohn-Sham DFT energy:
Kohn-Sham wavefunction type      ... RKS
Hartree-Fock exchange scaling    ...    0.250
Number of operators              ...    1
Number of atoms                  ...   19
Basis set dimensions             ...  289
Integral neglect threshold       ... 2.5e-11
Integral primitive cutoff        ... 2.5e-12

Nuclear repulsion gradient       ... done
One Electron Gradient            ... done
Pre-screening matrix             ... done
Starting the two electron gradient:
Two electron gradient done
Exchange-correlation gradient    ... done

------------------
CARTESIAN GRADIENT
------------------

   1   C   :    0.000029569   -0.000070772   -0.000095655
   2   N   :   -0.000220676   -0.000029394    0.000114068
   3   C   :   -0.000105382    0.000021215   -0.000150377
   4   C   :   -0.000089189   -0.000013456   -0.000141386
   5   C   :    0.000004337   -0.000013398    0.000205843
   6   O   :    0.000058289   -0.000083080    0.000101974
   7   C   :   -0.000228627   -0.000129549    0.000029351
   8   H   :    0.000029499    0.000031820    0.000062300
   9   H   :    0.000017480   -0.000067007   -0.000026619
  10   H   :    0.000098344    0.000151833   -0.000049282
  11   H   :   -0.000133539   -0.000041996    0.000079130
  12   H   :    0.000002843    0.000004805    0.000027002
  13   H   :    0.000060852   -0.000091279    0.000063445
  14   H   :    0.000091173    0.000090897    0.000016714
  15   H   :    0.000149739   -0.000003295   -0.000180459
  16   H   :    0.000062436    0.000036295   -0.000099968
  17   H   :   -0.000054923   -0.000006662   -0.000050015
  18   H   :    0.000170218    0.000152422    0.000059910
  19   H   :    0.000057558    0.000060602    0.000034023

Norm of the cartesian gradient     ...    0.000720240
RMS gradient                       ...    0.000095398
MAX gradient                       ...    0.000228627

-------
TIMINGS
-------

Total SCF gradient time            ...       48.927 sec

One electron gradient       ....       0.244 sec  (  0.5%)
Prescreening matrices       ....       0.900 sec  (  1.8%)
Two electron gradient       ....      35.754 sec  ( 73.1%)
XC gradient                 ....       5.016 sec  ( 10.3%)
           ************************************************************
           *              Shut down parallel processing               *
           ************************************************************
------------------------------------------------------------------------------
                         ORCA GEOMETRY RELAXATION STEP
------------------------------------------------------------------------------

Reading the OPT-File                    .... done
Getting information on internals        .... done
Copying old internal coords+grads       .... done
Making the new internal coordinates     .... (new redundants).... done
Validating the new internal coordinates .... (new redundants).... done
Calculating the B-matrix                .... done
Calculating the G,G- and P matrices     .... done
Transforming gradient to internals      .... done
Projecting the internal gradient        .... done
Number of atoms                         ....  19
Number of internal coordinates          ....  82
Current Energy                          ....  -327.193825314 Eh
Current gradient norm                   ....     0.000720240 Eh/bohr
Maximum allowed component of the step   ....  0.300
Current trust radius                    ....  0.300
Evaluating the initial hessian          ....  (Almloef) done
Projecting the Hessian                  .... done
Forming the augmented Hessian           .... done
Diagonalizing the augmented Hessian     .... done
Last element of RFO vector              ....  0.999953348
Lowest eigenvalues of augmented Hessian:
 -0.000004770  0.012713854  0.013928205  0.014156684  0.019387448
Length of the computed step             ....  0.009659769
The final length of the internal step   ....  0.009659769
Converting the step to cartesian space:
 Initial RMS(Int)=    0.0010667430
Transforming coordinates:
 Iter   0:  RMS(Cart)=    0.0038653334 RMS(Int)=    0.6938191570
 Iter   1:  RMS(Cart)=    0.0000070593 RMS(Int)=    0.0000043634
 Iter   2:  RMS(Cart)=    0.0000000252 RMS(Int)=    0.0000000073
done
Storing new coordinates                 .... done

                                .--------------------.
          ----------------------|Geometry convergence|---------------------
          Item                value                 Tolerance   Converged
          -----------------------------------------------------------------
          RMS gradient        0.00011799            0.00003000      NO
          MAX gradient        0.00049192            0.00010000      NO
          RMS step            0.00106674            0.00060000      NO
          MAX step            0.00378750            0.00100000      NO
          ....................................................
          Max(Bonds)      0.0003      Max(Angles)    0.09
          Max(Dihed)        0.22      Max(Improp)    0.00
          -----------------------------------------------------------------

The optimization has not yet converged - more geometry cycles are needed


    ---------------------------------------------------------------------------
                         Redundant Internal Coordinates
                            (Angstroem and degrees)

        Definition                    Value    dE/dq     Step     New-Value
    ----------------------------------------------------------------------------
     1. B(N   1,C   0)                1.4881  0.000210 -0.0003    1.4878   
     2. B(C   2,N   1)                1.4859 -0.000076  0.0001    1.4860   
     3. B(C   3,C   2)                1.5017 -0.000125  0.0002    1.5019   
     4. B(C   4,C   3)                1.3324 -0.000177  0.0001    1.3326   
     5. B(O   5,C   3)                1.3326  0.000161 -0.0001    1.3325   
     6. B(C   6,O   5)                1.4232  0.000094 -0.0001    1.4231   
     7. B(H   7,C   0)                1.0883 -0.000071  0.0001    1.0884   
     8. B(H   8,C   0)                1.0882  0.000059 -0.0001    1.0881   
     9. B(H   9,C   0)                1.0882  0.000171 -0.0002    1.0880   
    10. B(H  10,N   1)                1.0229  0.000034 -0.0000    1.0229   
    11. B(H  11,N   1)                1.0228 -0.000012  0.0000    1.0228   
    12. B(H  12,C   2)                1.0921  0.000119 -0.0002    1.0920   
    13. B(H  13,C   2)                1.0921  0.000127 -0.0002    1.0919   
    14. B(H  14,C   4)                1.0798 -0.000230  0.0003    1.0801   
    15. B(H  15,C   4)                1.0821  0.000084 -0.0001    1.0820   
    16. B(H  16,C   6)                1.0865 -0.000073  0.0001    1.0866   
    17. B(H  17,C   6)                1.0925 -0.000222  0.0003    1.0928   
    18. B(H  18,C   6)                1.0928  0.000014 -0.0000    1.0928   
    19. A(H   7,C   0,H   8)          110.17 -0.000014    0.01    110.17   
    20. A(H   8,C   0,H   9)          110.10 -0.000011   -0.01    110.09   
    21. A(N   1,C   0,H   8)          108.72  0.000009   -0.00    108.71   
    22. A(N   1,C   0,H   7)          108.96 -0.000012    0.01    108.96   
    23. A(N   1,C   0,H   9)          108.72  0.000092   -0.02    108.70   
    24. A(H   7,C   0,H   9)          110.15 -0.000061    0.02    110.16   
    25. A(C   2,N   1,H  10)          108.25 -0.000079    0.02    108.27   
    26. A(C   0,N   1,H  10)          109.97  0.000052   -0.02    109.96   
    27. A(C   0,N   1,C   2)          114.29  0.000064   -0.02    114.27   
    28. A(H  10,N   1,H  11)          105.65 -0.000016    0.02    105.66   
    29. A(C   2,N   1,H  11)          108.34 -0.000033    0.01    108.35   
    30. A(C   0,N   1,H  11)          109.96  0.000004   -0.01    109.95   
    31. A(N   1,C   2,C   3)          112.22 -0.000492    0.09    112.31   
    32. A(N   1,C   2,H  13)          107.75  0.000146   -0.02    107.73   
    33. A(H  12,C   2,H  13)          108.03 -0.000073   -0.01    108.02   
    34. A(C   3,C   2,H  12)          110.46  0.000147   -0.02    110.43   
    35. A(N   1,C   2,H  12)          107.80  0.000163   -0.03    107.77   
    36. A(C   3,C   2,H  13)          110.44  0.000122   -0.01    110.43   
    37. A(C   2,C   3,C   4)          125.11 -0.000470    0.06    125.17   
    38. A(C   4,C   3,O   5)          127.76  0.000178   -0.02    127.74   
    39. A(C   2,C   3,O   5)          107.13  0.000292   -0.04    107.09   
    40. A(H  14,C   4,H  15)          115.28  0.000024   -0.00    115.28   
    41. A(C   3,C   4,H  15)          122.72 -0.000150    0.02    122.74   
    42. A(C   3,C   4,H  14)          122.00  0.000127   -0.02    121.98   
    43. A(C   3,O   5,C   6)          117.90  0.000038   -0.01    117.89   
    44. A(H  16,C   6,H  18)          109.87 -0.000043    0.01    109.88   
    45. A(O   5,C   6,H  18)          110.48 -0.000021    0.00    110.49   
    46. A(H  16,C   6,H  17)          109.85 -0.000049    0.01    109.86   
    47. A(O   5,C   6,H  17)          110.52  0.000023   -0.01    110.52   
    48. A(H  17,C   6,H  18)          110.15  0.000079   -0.02    110.13   
    49. A(O   5,C   6,H  16)          105.89  0.000006    0.00    105.89   
    50. D(H  11,N   1,C   0,H   7)     57.93  0.000010   -0.02     57.91   
    51. D(H  11,N   1,C   0,H   8)    -62.15  0.000029   -0.03    -62.18   
    52. D(C   2,N   1,C   0,H   7)   -179.99  0.000015   -0.02   -180.01   
    53. D(C   2,N   1,C   0,H   8)     59.93  0.000034   -0.03     59.90   
    54. D(C   2,N   1,C   0,H   9)    -59.93 -0.000012   -0.01    -59.94   
    55. D(H  10,N   1,C   0,H   7)    -58.00 -0.000003   -0.02    -58.03   
    56. D(H  10,N   1,C   0,H   8)   -178.09  0.000016   -0.03   -178.12   
    57. D(H  11,N   1,C   0,H   9)    177.99 -0.000017   -0.00    177.98   
    58. D(H  10,N   1,C   0,H   9)     62.05 -0.000030   -0.01     62.04   
    59. D(H  12,C   2,N   1,H  10)    178.06 -0.000104    0.16    178.22   
    60. D(H  12,C   2,N   1,C   0)    -59.02 -0.000053    0.14    -58.88   
    61. D(C   3,C   2,N   1,H  11)    -57.90 -0.000013    0.12    -57.78   
    62. D(C   3,C   2,N   1,H  10)     56.21 -0.000088    0.15     56.37   
    63. D(H  12,C   2,N   1,H  11)     63.94 -0.000029    0.13     64.07   
    64. D(C   3,C   2,N   1,C   0)    179.13 -0.000037    0.14    179.27   
    65. D(H  13,C   2,N   1,H  11)   -179.70  0.000045    0.09   -179.61   
    66. D(H  13,C   2,N   1,H  10)    -65.58 -0.000030    0.12    -65.46   
    67. D(H  13,C   2,N   1,C   0)     57.34  0.000021    0.10     57.44   
    68. D(O   5,C   3,C   2,H  13)    -60.11 -0.000047    0.06    -60.04   
    69. D(O   5,C   3,C   2,H  12)     59.33  0.000034    0.03     59.36   
    70. D(O   5,C   3,C   2,N   1)    179.65  0.000012    0.03    179.68   
    71. D(C   4,C   3,C   2,H  13)    119.80 -0.000079    0.13    119.93   
    72. D(C   4,C   3,C   2,H  12)   -120.76  0.000002    0.09   -120.67   
    73. D(C   4,C   3,C   2,N   1)     -0.44 -0.000020    0.10     -0.34   
    74. D(H  15,C   4,C   3,O   5)   -179.99 -0.000049    0.08   -179.92   
    75. D(H  15,C   4,C   3,C   2)      0.11 -0.000010    0.00      0.11   
    76. D(H  14,C   4,C   3,O   5)     -0.02 -0.000027    0.05      0.03   
    77. D(H  14,C   4,C   3,C   2)   -179.92  0.000012   -0.03   -179.94   
    78. D(C   6,O   5,C   3,C   4)     -0.45 -0.000097    0.15     -0.30   
    79. D(C   6,O   5,C   3,C   2)    179.46 -0.000131    0.22    179.67   
    80. D(H  16,C   6,O   5,C   3)   -179.87 -0.000006    0.03   -179.84   
    81. D(H  18,C   6,O   5,C   3)    -60.95 -0.000064    0.05    -60.90   
    82. D(H  17,C   6,O   5,C   3)     61.22  0.000037    0.02     61.24   
    ----------------------------------------------------------------------------

         *************************************************************
         *                GEOMETRY OPTIMIZATION CYCLE   2            *
         *************************************************************
---------------------------------
CARTESIAN COORDINATES (ANGSTROEM)
---------------------------------
  C      1.665293    0.050588   -2.730985
  N      0.480914    0.001728   -1.831808
  C      0.812296    0.021757   -0.383393
  C     -0.414347   -0.011284    0.482569
  C     -1.669036   -0.047366    0.035169
  O     -0.000103    0.003102    1.748972
  C     -0.988274   -0.015670    2.772870
  H      1.325490    0.031576   -3.764822
  H      2.294450   -0.813367   -2.526872
  H      2.215311    0.968366   -2.533839
  H     -0.140325    0.789929   -2.029573
  H     -0.069239   -0.838633   -2.024666
  H      1.449159   -0.840479   -0.175244
  H      1.392907    0.925553   -0.187551
  H     -2.515218   -0.069143    0.706128
  H     -1.914484   -0.057906   -1.018556
  H     -0.443245    0.003476    3.712712
  H     -1.587784   -0.927160    2.709894
  H     -1.632474    0.863973    2.698859

----------------------------
CARTESIAN COORDINATES (A.U.)
----------------------------
  NO LB      ZA    FRAG    MASS        X           Y           Z
   0 C     6.0000    0    12.011          3.146948387184443          0.095598095485380         -5.160813461188408
   1 N     7.0000    0    14.007          0.908794925528265          0.003265028166018         -3.461615226482824
   2 C     6.0000    0    12.011          1.535016993867870          0.041114622569215         -0.724508040531524
   3 C     6.0000    0    12.011         -0.783002340326905         -0.021323284652571          0.911922510727502
   4 C     6.0000    0    12.011         -3.154021326121040         -0.089508949402751          0.066458883277194
   5 O     8.0000    0    15.999         -0.000195025779037          0.005861103105624          3.305077949347061
   6 C     6.0000    0    12.011         -1.867566684410909         -0.029611379642079          5.239965727771409
   7 H     1.0000    0     1.008          2.504812479321577          0.059669406701899         -7.114482193068455
   8 H     1.0000    0     1.008          4.335883010273778         -1.537041724688725         -4.775096586970410
   9 H     1.0000    0     1.008          4.186331376895713          1.829945704009073         -4.788261739574204
  10 H     1.0000    0     1.008         -0.265175784445321          1.492749733297643         -3.835336343864853
  11 H     1.0000    0     1.008         -0.130841839765339         -1.584786847210491         -3.826063997039448
  12 H     1.0000    0     1.008          2.738514137350692         -1.588274447962276         -0.331164082303906
  13 H     1.0000    0     1.008          2.632212628667033          1.749041039557215         -0.354420458416428
  14 H     1.0000    0     1.008         -4.753072467719087         -0.130662044946037          1.334387608833204
  15 H     1.0000    0     1.008         -3.617850999690250         -0.109425924707179         -1.924792334114252
  16 H     1.0000    0     1.008         -0.837611421654674          0.006567779471327          7.016008782451177
  17 H     1.0000    0     1.008         -3.000477062100621         -1.752078483267444          5.120957275216813
  18 H     1.0000    0     1.008         -3.084928797176776          1.632671972517415          5.100104742636727

--------------------------------
INTERNAL COORDINATES (ANGSTROEM)
--------------------------------
 C      0   0   0   0.000000     0.000     0.000
 N      1   0   0   1.487838     0.000     0.000
 C      2   1   0   1.485975   114.275     0.000
 C      3   2   1   1.501877   112.308   179.266
 C      4   3   2   1.332559   125.171   359.658
 O      4   3   2   1.332510   107.088   179.683
 C      6   4   3   1.423096   117.891   179.673
 H      1   2   3   1.088415   108.962   179.991
 H      1   2   3   1.088081   108.714    59.900
 H      1   2   3   1.087980   108.701   300.062
 H      2   1   3   1.022893   109.957   121.981
 H      2   1   3   1.022775   109.951   237.919
 H      3   2   1   1.091957   107.772   301.118
 H      3   2   1   1.091929   107.731    57.442
 H      5   4   3   1.080131   121.979   180.056
 H      5   4   3   1.081985   122.740     0.115
 H      7   6   4   1.086612   105.889   180.165
 H      7   6   4   1.092792   110.517    61.241
 H      7   6   4   1.092814   110.486   299.099

---------------------------
INTERNAL COORDINATES (A.U.)
---------------------------
 C      0   0   0   0.000000     0.000     0.000
 N      1   0   0   2.811606     0.000     0.000
 C      2   1   0   2.808085   114.275     0.000
 C      3   2   1   2.838136   112.308   179.266
 C      4   3   2   2.518172   125.171   359.658
 O      4   3   2   2.518078   107.088   179.683
 C      6   4   3   2.689261   117.891   179.673
 H      1   2   3   2.056806   108.962   179.991
 H      1   2   3   2.056175   108.714    59.900
 H      1   2   3   2.055985   108.701   300.062
 H      2   1   3   1.932987   109.957   121.981
 H      2   1   3   1.932764   109.951   237.919
 H      3   2   1   2.063500   107.772   301.118
 H      3   2   1   2.063448   107.731    57.442
 H      5   4   3   2.041152   121.979   180.056
 H      5   4   3   2.044655   122.740     0.115
 H      7   6   4   2.053399   105.889   180.165
 H      7   6   4   2.065077   110.517    61.241
 H      7   6   4   2.065119   110.486   299.099



           ************************************************************
           *        Program running with 8 parallel MPI-processes     *
           *              working on a common directory               *
           ************************************************************
           ************************************************************
           *              Shut down parallel processing               *
           ************************************************************


           ************************************************************
           *        Program running with 8 parallel MPI-processes     *
           *              working on a common directory               *
           ************************************************************

Diagonalization of the overlap matrix:
Smallest eigenvalue                        ... 1.204e-04
Time for diagonalization                   ...    0.854 sec
Threshold for overlap eigenvalues          ... 1.000e-08
Number of eigenvalues below threshold      ... 0
Time for construction of square roots      ...    0.024 sec
Total time needed                          ...    0.878 sec

-------------------
DFT GRID GENERATION
-------------------

General Integration Accuracy     IntAcc      ...  4.340
Radial Grid Type                 RadialGrid  ... Gauss-Chebyshev
Angular Grid (max. acc.)         AngularGrid ... Lebedev-194
Angular grid pruning method      GridPruning ... 3 (G Style)
Weight generation scheme         WeightScheme... Becke
Basis function cutoff            BFCut       ...    1.0000e-11
Integration weight cutoff        WCut        ...    1.0000e-14
Grids for H and He will be reduced by one unit

# of grid points (after initial pruning)     ...  41422 (   0.0 sec)
# of grid points (after weights+screening)   ...  38027 (   0.3 sec)
nearest neighbour list constructed           ...    0.0 sec
Grid point re-assignment to atoms done       ...    0.0 sec
Grid point division into batches done        ...    0.1 sec
Reduced shell lists constructed in    0.1 sec

Total number of grid points                  ...    38027
Total number of batches                      ...      604
Average number of points per batch           ...       62
Average number of grid points per atom       ...     2001
Average number of shells per batch           ...    92.88 (74.31%)
Average number of basis functions per batch  ...   218.26 (75.52%)
Average number of large shells per batch     ...    75.77 (81.57%)
Average number of large basis fcns per batch ...   177.79 (81.46%)
Maximum spatial batch extension              ...   2.46,  2.60,  2.65 au
Average spatial batch extension              ...   0.15,  0.14,  0.14 au

Time for grid setup =    1.039 sec

--------------
SCF ITERATIONS
--------------
ITER       Energy         Delta-E        Max-DP      RMS-DP      [F,P]     Damp
               ***  Starting incremental Fock matrix formation  ***
                      *** Initiating the SOSCF procedure ***
                      *** Re-Reading the Fockian *** 
                      *** Removing any level shift *** 
ITER      Energy       Delta-E        Grad      Rot      Max-DP    RMS-DP
  0   -327.19397097 -327.1939709653  0.000320  0.000320  0.000489  0.000015
               *** Restarting incremental Fock matrix formation ***
  1   -327.19398398  -0.0000130169  0.000110  0.000180  0.000228  0.000007
  2   -327.19398522  -0.0000012418  0.000060  0.000220  0.000130  0.000003
  3   -327.19398514   0.0000000837  0.000108  0.000147  0.000089  0.000002
  4   -327.19398529  -0.0000001542  0.000006  0.000012  0.000017  0.000000
  5   -327.19398529   0.0000000008  0.000009  0.000006  0.000008  0.000000
                  ***Gradient check signals convergence***
              ***Rediagonalizing the Fockian in SOSCF/NRSCF***

               *****************************************************
               *                     SUCCESS                       *
               *           SCF CONVERGED AFTER   6 CYCLES          *
               *****************************************************

Setting up the final grid:

General Integration Accuracy     IntAcc      ...  5.010
Radial Grid Type                 RadialGrid  ... Gauss-Chebyshev
Angular Grid (max. acc.)         AngularGrid ... Lebedev-434
Angular grid pruning method      GridPruning ... 3 (G Style)
Weight generation scheme         WeightScheme... Becke
Basis function cutoff            BFCut       ...    1.0000e-11
Integration weight cutoff        WCut        ...    1.0000e-14
Grids for H and He will be reduced by one unit

# of grid points (after initial pruning)     ... 155226 (   0.0 sec)
# of grid points (after weights+screening)   ... 140751 (   4.3 sec)
nearest neighbour list constructed           ...    0.0 sec
Grid point re-assignment to atoms done       ...    0.1 sec
Grid point division into batches done        ...    1.3 sec
Reduced shell lists constructed in    1.7 sec

Total number of grid points                  ...   140751
Total number of batches                      ...     2208
Average number of points per batch           ...       63
Average number of grid points per atom       ...     7408
Average number of shells per batch           ...    92.30 (73.84%)
Average number of basis functions per batch  ...   217.81 (75.37%)
Average number of large shells per batch     ...    74.43 (80.64%)
Average number of large basis fcns per batch ...   175.79 (80.71%)
Maximum spatial batch extension              ...   2.10,  2.96,  1.99 au
Average spatial batch extension              ...   0.10,  0.10,  0.10 au

Final grid set up in    7.6 sec
Final integration                            ... done (   1.1 sec)
Change in XC energy                          ...     0.000157097
Integrated number of electrons               ...    55.999979508
Previous integrated no of electrons          ...    55.998974768
Total Energy       :         -327.19382820 Eh           -8903.39671 eV
  Last Energy change         ...   -2.8775e-09  Tolerance :   1.0000e-08
  Last MAX-Density change    ...    2.9613e-06  Tolerance :   1.0000e-07
             **** THE GBW FILE WAS UPDATED (5720_+.gbw) ****
             **** DENSITY FILE WAS UPDATED (5720_+.scfp.tmp) ****
             **** ENERGY FILE WAS UPDATED (5720_+.en.tmp) ****
Total SCF time: 0 days 0 hours 1 min 8 sec 
           ************************************************************
           *              Shut down parallel processing               *
           ************************************************************

-------------------------   --------------------
FINAL SINGLE POINT ENERGY      -327.193828199128
-------------------------   --------------------



           ************************************************************
           *        Program running with 8 parallel MPI-processes     *
           *              working on a common directory               *
           ************************************************************
------------------------------------------------------------------------------
                         ORCA SCF GRADIENT CALCULATION
------------------------------------------------------------------------------

Gradient of the Kohn-Sham DFT energy:
Kohn-Sham wavefunction type      ... RKS
Hartree-Fock exchange scaling    ...    0.250
Number of operators              ...    1
Number of atoms                  ...   19
Basis set dimensions             ...  289
Integral neglect threshold       ... 2.5e-11
Integral primitive cutoff        ... 2.5e-12

Nuclear repulsion gradient       ... done
One Electron Gradient            ... done
Pre-screening matrix             ... done
Starting the two electron gradient:
Two electron gradient done
Exchange-correlation gradient    ... done

------------------
CARTESIAN GRADIENT
------------------

   1   C   :    0.000034928    0.000010255    0.000028721
   2   N   :    0.000053433   -0.000005546   -0.000048691
   3   C   :   -0.000013313    0.000027570   -0.000104082
   4   C   :    0.000059966    0.000084904    0.000099338
   5   C   :   -0.000026948    0.000003474    0.000031337
   6   O   :   -0.000003950   -0.000093807   -0.000037018
   7   C   :   -0.000120583    0.000006204   -0.000028906
   8   H   :   -0.000003621    0.000019394   -0.000002694
   9   H   :   -0.000016394   -0.000014880   -0.000013399
  10   H   :   -0.000006212    0.000006811   -0.000032798
  11   H   :   -0.000064467   -0.000036278    0.000063172
  12   H   :    0.000020175   -0.000009494    0.000007425
  13   H   :   -0.000003370    0.000003219    0.000022543
  14   H   :    0.000029631   -0.000017653   -0.000017090
  15   H   :   -0.000031183    0.000004692   -0.000035641
  16   H   :    0.000009892   -0.000008897    0.000022517
  17   H   :   -0.000002669   -0.000005248    0.000009798
  18   H   :    0.000043114   -0.000005570    0.000040870
  19   H   :    0.000041572    0.000030848   -0.000005403

Norm of the cartesian gradient     ...    0.000301284
RMS gradient                       ...    0.000039906
MAX gradient                       ...    0.000120583

-------
TIMINGS
-------

Total SCF gradient time            ...       46.471 sec

One electron gradient       ....       0.341 sec  (  0.7%)
Prescreening matrices       ....       0.586 sec  (  1.3%)
Two electron gradient       ....      38.038 sec  ( 81.9%)
XC gradient                 ....       4.293 sec  (  9.2%)
           ************************************************************
           *              Shut down parallel processing               *
           ************************************************************
------------------------------------------------------------------------------
                         ORCA GEOMETRY RELAXATION STEP
------------------------------------------------------------------------------

Reading the OPT-File                    .... done
Getting information on internals        .... done
Copying old internal coords+grads       .... done
Making the new internal coordinates     .... (new redundants).... done
Validating the new internal coordinates .... (new redundants).... done
Calculating the B-matrix                .... done
Calculating the G,G- and P matrices     .... done
Transforming gradient to internals      .... done
Projecting the internal gradient        .... done
Number of atoms                         ....  19
Number of internal coordinates          ....  82
Current Energy                          ....  -327.193828199 Eh
Current gradient norm                   ....     0.000301284 Eh/bohr
Maximum allowed component of the step   ....  0.300
Current trust radius                    ....  0.300
Updating the Hessian (BFGS)             .... done
Forming the augmented Hessian           .... done
Diagonalizing the augmented Hessian     .... done
Last element of RFO vector              ....  0.999937514
Lowest eigenvalues of augmented Hessian:
 -0.000001598  0.009967003  0.013080118  0.013933364  0.019542955
Length of the computed step             ....  0.011179586
The final length of the internal step   ....  0.011179586
Converting the step to cartesian space:
 Initial RMS(Int)=    0.0012345788
Transforming coordinates:
 Iter   0:  RMS(Cart)=    0.0032261124 RMS(Int)=    0.0012345337
 Iter   1:  RMS(Cart)=    0.0000053985 RMS(Int)=    0.0000034966
 Iter   2:  RMS(Cart)=    0.0000000209 RMS(Int)=    0.0000000070
done
Storing new coordinates                 .... done

                                .--------------------.
          ----------------------|Geometry convergence|---------------------
          Item                value                 Tolerance   Converged
          -----------------------------------------------------------------
          Energy change      -0.00000289            0.00000100      NO
          RMS gradient        0.00003290            0.00003000      NO
          MAX gradient        0.00012528            0.00010000      NO
          RMS step            0.00123458            0.00060000      NO
          MAX step            0.00337355            0.00100000      NO
          ....................................................
          Max(Bonds)      0.0001      Max(Angles)    0.03
          Max(Dihed)        0.19      Max(Improp)    0.00
          -----------------------------------------------------------------

The optimization has not yet converged - more geometry cycles are needed


    ---------------------------------------------------------------------------
                         Redundant Internal Coordinates
                            (Angstroem and degrees)

        Definition                    Value    dE/dq     Step     New-Value
    ----------------------------------------------------------------------------
     1. B(N   1,C   0)                1.4878  0.000023 -0.0001    1.4877   
     2. B(C   2,N   1)                1.4860 -0.000013  0.0000    1.4860   
     3. B(C   3,C   2)                1.5019  0.000085 -0.0001    1.5018   
     4. B(C   4,C   3)                1.3326  0.000041 -0.0000    1.3325   
     5. B(O   5,C   3)                1.3325 -0.000040  0.0000    1.3325   
     6. B(C   6,O   5)                1.4231  0.000042 -0.0001    1.4230   
     7. B(H   7,C   0)                1.0884  0.000002  0.0000    1.0884   
     8. B(H   8,C   0)                1.0881  0.000000 -0.0000    1.0881   
     9. B(H   9,C   0)                1.0880 -0.000001 -0.0001    1.0879   
    10. B(H  10,N   1)                1.0229 -0.000001 -0.0000    1.0229   
    11. B(H  11,N   1)                1.0228 -0.000005  0.0000    1.0228   
    12. B(H  12,C   2)                1.0920 -0.000000 -0.0000    1.0919   
    13. B(H  13,C   2)                1.0919 -0.000001 -0.0000    1.0919   
    14. B(H  14,C   4)                1.0801  0.000002  0.0001    1.0802   
    15. B(H  15,C   4)                1.0820 -0.000023  0.0000    1.0820   
    16. B(H  16,C   6)                1.0866  0.000005  0.0000    1.0866   
    17. B(H  17,C   6)                1.0928 -0.000020  0.0001    1.0929   
    18. B(H  18,C   6)                1.0928  0.000001 -0.0000    1.0928   
    19. A(H   7,C   0,H   8)          110.17  0.000002    0.00    110.17   
    20. A(H   8,C   0,H   9)          110.09  0.000008   -0.01    110.08   
    21. A(N   1,C   0,H   8)          108.71 -0.000005   -0.00    108.71   
    22. A(N   1,C   0,H   7)          108.96 -0.000009    0.01    108.97   
    23. A(N   1,C   0,H   9)          108.70  0.000027   -0.01    108.69   
    24. A(H   7,C   0,H   9)          110.16 -0.000022    0.01    110.18   
    25. A(C   2,N   1,H  10)          108.27 -0.000062    0.02    108.30   
    26. A(C   0,N   1,H  10)          109.96  0.000027   -0.02    109.94   
    27. A(C   0,N   1,C   2)          114.27  0.000060   -0.02    114.25   
    28. A(H  10,N   1,H  11)          105.66  0.000001    0.01    105.68   
    29. A(C   2,N   1,H  11)          108.35 -0.000019    0.01    108.36   
    30. A(C   0,N   1,H  11)          109.95 -0.000012   -0.00    109.95   
    31. A(N   1,C   2,C   3)          112.31 -0.000050    0.03    112.34   
    32. A(N   1,C   2,H  13)          107.73  0.000013   -0.00    107.73   
    33. A(H  12,C   2,H  13)          108.02 -0.000017    0.00    108.02   
    34. A(C   3,C   2,H  12)          110.43  0.000023   -0.01    110.42   
    35. A(N   1,C   2,H  12)          107.77  0.000020   -0.01    107.76   
    36. A(C   3,C   2,H  13)          110.43  0.000011   -0.00    110.43   
    37. A(C   2,C   3,C   4)          125.17 -0.000081    0.03    125.20   
    38. A(C   4,C   3,O   5)          127.74 -0.000044    0.00    127.74   
    39. A(C   2,C   3,O   5)          107.09  0.000125   -0.03    107.05   
    40. A(H  14,C   4,H  15)          115.28 -0.000030    0.01    115.29   
    41. A(C   3,C   4,H  15)          122.74 -0.000040    0.01    122.75   
    42. A(C   3,C   4,H  14)          121.98  0.000070   -0.02    121.96   
    43. A(C   3,O   5,C   6)          117.89 -0.000058    0.01    117.90   
    44. A(H  16,C   6,H  18)          109.88 -0.000006    0.01    109.89   
    45. A(O   5,C   6,H  18)          110.49 -0.000046    0.01    110.50   
    46. A(H  16,C   6,H  17)          109.86 -0.000033    0.01    109.87   
    47. A(O   5,C   6,H  17)          110.52  0.000029   -0.01    110.51   
    48. A(H  17,C   6,H  18)          110.13  0.000053   -0.03    110.10   
    49. A(O   5,C   6,H  16)          105.89  0.000001    0.00    105.89   
    50. D(H  11,N   1,C   0,H   7)     57.91  0.000007   -0.02     57.89   
    51. D(H  11,N   1,C   0,H   8)    -62.18  0.000013   -0.03    -62.21   
    52. D(C   2,N   1,C   0,H   7)    179.99  0.000016   -0.03    179.96   
    53. D(C   2,N   1,C   0,H   8)     59.90  0.000022   -0.04     59.86   
    54. D(C   2,N   1,C   0,H   9)    -59.94 -0.000001   -0.02    -59.95   
    55. D(H  10,N   1,C   0,H   7)    -58.03 -0.000003   -0.02    -58.05   
    56. D(H  10,N   1,C   0,H   8)   -178.12  0.000003   -0.03   -178.15   
    57. D(H  11,N   1,C   0,H   9)    177.98 -0.000010   -0.01    177.97   
    58. D(H  10,N   1,C   0,H   9)     62.04 -0.000019   -0.01     62.03   
    59. D(H  12,C   2,N   1,H  10)    178.22 -0.000044    0.18    178.40   
    60. D(H  12,C   2,N   1,C   0)    -58.88 -0.000015    0.17    -58.71   
    61. D(C   3,C   2,N   1,H  11)    -57.78 -0.000014    0.16    -57.62   
    62. D(C   3,C   2,N   1,H  10)     56.37 -0.000054    0.19     56.56   
    63. D(H  12,C   2,N   1,H  11)     64.07 -0.000004    0.15     64.23   
    64. D(C   3,C   2,N   1,C   0)    179.27 -0.000025    0.18    179.44   
    65. D(H  13,C   2,N   1,H  11)   -179.61 -0.000006    0.15   -179.46   
    66. D(H  13,C   2,N   1,H  10)    -65.46 -0.000046    0.18    -65.28   
    67. D(H  13,C   2,N   1,C   0)     57.44 -0.000017    0.16     57.60   
    68. D(O   5,C   3,C   2,H  13)    -60.04 -0.000019    0.12    -59.93   
    69. D(O   5,C   3,C   2,H  12)     59.36 -0.000019    0.11     59.47   
    70. D(O   5,C   3,C   2,N   1)    179.68 -0.000011    0.10    179.79   
    71. D(C   4,C   3,C   2,H  13)    119.93 -0.000019    0.13    120.06   
    72. D(C   4,C   3,C   2,H  12)   -120.67 -0.000018    0.12   -120.54   
    73. D(C   4,C   3,C   2,N   1)     -0.34 -0.000010    0.12     -0.23   
    74. D(H  15,C   4,C   3,O   5)   -179.92  0.000009   -0.00   -179.92   
    75. D(H  15,C   4,C   3,C   2)      0.11  0.000008   -0.01      0.10   
    76. D(H  14,C   4,C   3,O   5)      0.03  0.000004    0.00      0.03   
    77. D(H  14,C   4,C   3,C   2)   -179.94  0.000003   -0.01   -179.96   
    78. D(C   6,O   5,C   3,C   4)     -0.30 -0.000052    0.15     -0.15   
    79. D(C   6,O   5,C   3,C   2)    179.67 -0.000051    0.16    179.84   
    80. D(H  16,C   6,O   5,C   3)   -179.84  0.000011   -0.03   -179.86   
    81. D(H  18,C   6,O   5,C   3)    -60.90 -0.000021   -0.01    -60.91   
    82. D(H  17,C   6,O   5,C   3)     61.24  0.000034   -0.04     61.20   
    ----------------------------------------------------------------------------

         *************************************************************
         *                GEOMETRY OPTIMIZATION CYCLE   3            *
         *************************************************************
---------------------------------
CARTESIAN COORDINATES (ANGSTROEM)
---------------------------------
  C      1.665982    0.048965   -2.730471
  N      0.480735    0.003893   -1.832414
  C      0.811391    0.023283   -0.383776
  C     -0.415143   -0.010102    0.482122
  C     -1.669997   -0.048169    0.035388
  O     -0.000208    0.006063    1.748295
  C     -0.987465   -0.016195    2.772886
  H      1.327187    0.030195   -3.764663
  H      2.292641   -0.816489   -2.525122
  H      2.218265    0.965271   -2.533094
  H     -0.137801    0.793954   -2.031195
  H     -0.071668   -0.834946   -2.025533
  H      1.447981   -0.839175   -0.175914
  H      1.392104    0.926845   -0.187366
  H     -2.515635   -0.070274    0.707129
  H     -1.916208   -0.060062   -1.018165
  H     -0.441826    0.004648    3.712352
  H     -1.584070   -0.929725    2.709926
  H     -1.634972    0.861057    2.699478

----------------------------
CARTESIAN COORDINATES (A.U.)
----------------------------
  NO LB      ZA    FRAG    MASS        X           Y           Z
   0 C     6.0000    0    12.011          3.148250006604159          0.092530139481931         -5.159842342836914
   1 N     7.0000    0    14.007          0.908456889037735          0.007357276915538         -3.462759960189762
   2 C     6.0000    0    12.011          1.533306717811619          0.043999207637014         -0.725231803050397
   3 C     6.0000    0    12.011         -0.784505903449985         -0.019090025273348          0.911077854710262
   4 C     6.0000    0    12.011         -3.155836313341899         -0.091025898918472          0.066873909064370
   5 O     8.0000    0    15.999         -0.000393327406721          0.011457513821010          3.303797977287104
   6 C     6.0000    0    12.011         -1.866037809716236         -0.030604416752011          5.239995689018410
   7 H     1.0000    0     1.008          2.508019668187773          0.057059717412560         -7.114182313492740
   8 H     1.0000    0     1.008          4.332462864709304         -1.542939857939733         -4.771789333664469
   9 H     1.0000    0     1.008          4.191912890461352          1.824096955812592         -4.786854585241265
  10 H     1.0000    0     1.008         -0.260406109780139          1.500355238108918         -3.838402164834771
  11 H     1.0000    0     1.008         -0.135432814480705         -1.577818680536556         -3.827702082792515
  12 H     1.0000    0     1.008          2.736288413389068         -1.585810692329815         -0.332428481898160
  13 H     1.0000    0     1.008          2.630694462481976          1.751482906477100         -0.354070636739289
  14 H     1.0000    0     1.008         -4.753861359324722         -0.132798633299078          1.336280050690725
  15 H     1.0000    0     1.008         -3.621108676676764         -0.113500357392584         -1.924052146954922
  16 H     1.0000    0     1.008         -0.834930878333398          0.008783873812903          7.015327998077269
  17 H     1.0000    0     1.008         -2.993458790383559         -1.756925457402007          5.121017749266205
  18 H     1.0000    0     1.008         -3.089649739889446          1.627162588765293          5.101273640287233

--------------------------------
INTERNAL COORDINATES (ANGSTROEM)
--------------------------------
 C      0   0   0   0.000000     0.000     0.000
 N      1   0   0   1.487733     0.000     0.000
 C      2   1   0   1.486022   114.254     0.000
 C      3   2   1   1.501758   112.338   179.443
 C      4   3   2   1.332546   125.201   359.773
 O      4   3   2   1.332526   107.055   179.786
 C      6   4   3   1.423011   117.901   179.836
 H      1   2   3   1.088434   108.969   179.961
 H      1   2   3   1.088062   108.712    59.864
 H      1   2   3   1.087929   108.689   300.047
 H      2   1   3   1.022886   109.940   121.987
 H      2   1   3   1.022788   109.947   237.927
 H      3   2   1   1.091920   107.758   301.286
 H      3   2   1   1.091892   107.728    57.604
 H      5   4   3   1.080198   121.959   180.043
 H      5   4   3   1.082005   122.754     0.100
 H      7   6   4   1.086624   105.892   180.137
 H      7   6   4   1.092904   110.507    61.198
 H      7   6   4   1.092807   110.497   299.088

---------------------------
INTERNAL COORDINATES (A.U.)
---------------------------
 C      0   0   0   0.000000     0.000     0.000
 N      1   0   0   2.811408     0.000     0.000
 C      2   1   0   2.808174   114.254     0.000
 C      3   2   1   2.837912   112.338   179.443
 C      4   3   2   2.518147   125.201   359.773
 O      4   3   2   2.518109   107.055   179.786
 C      6   4   3   2.689100   117.901   179.836
 H      1   2   3   2.056842   108.969   179.961
 H      1   2   3   2.056139   108.712    59.864
 H      1   2   3   2.055888   108.689   300.047
 H      2   1   3   1.932975   109.940   121.987
 H      2   1   3   1.932788   109.947   237.927
 H      3   2   1   2.063429   107.758   301.286
 H      3   2   1   2.063376   107.728    57.604
 H      5   4   3   2.041279   121.959   180.043
 H      5   4   3   2.044693   122.754     0.100
 H      7   6   4   2.053421   105.892   180.137
 H      7   6   4   2.065289   110.507    61.198
 H      7   6   4   2.065106   110.497   299.088



           ************************************************************
           *        Program running with 8 parallel MPI-processes     *
           *              working on a common directory               *
           ************************************************************
           ************************************************************
           *              Shut down parallel processing               *
           ************************************************************


           ************************************************************
           *        Program running with 8 parallel MPI-processes     *
           *              working on a common directory               *
           ************************************************************

Diagonalization of the overlap matrix:
Smallest eigenvalue                        ... 1.203e-04
Time for diagonalization                   ...    0.855 sec
Threshold for overlap eigenvalues          ... 1.000e-08
Number of eigenvalues below threshold      ... 0
Time for construction of square roots      ...    0.049 sec
Total time needed                          ...    0.904 sec

-------------------
DFT GRID GENERATION
-------------------

General Integration Accuracy     IntAcc      ...  4.340
Radial Grid Type                 RadialGrid  ... Gauss-Chebyshev
Angular Grid (max. acc.)         AngularGrid ... Lebedev-194
Angular grid pruning method      GridPruning ... 3 (G Style)
Weight generation scheme         WeightScheme... Becke
Basis function cutoff            BFCut       ...    1.0000e-11
Integration weight cutoff        WCut        ...    1.0000e-14
Grids for H and He will be reduced by one unit

# of grid points (after initial pruning)     ...  41422 (   0.0 sec)
# of grid points (after weights+screening)   ...  38032 (   0.2 sec)
nearest neighbour list constructed           ...    0.0 sec
Grid point re-assignment to atoms done       ...    0.0 sec
Grid point division into batches done        ...    0.1 sec
Reduced shell lists constructed in    0.1 sec

Total number of grid points                  ...    38032
Total number of batches                      ...      603
Average number of points per batch           ...       63
Average number of grid points per atom       ...     2002
Average number of shells per batch           ...    92.97 (74.38%)
Average number of basis functions per batch  ...   218.53 (75.62%)
Average number of large shells per batch     ...    75.74 (81.46%)
Average number of large basis fcns per batch ...   177.97 (81.44%)
Maximum spatial batch extension              ...   2.45,  3.23,  2.65 au
Average spatial batch extension              ...   0.15,  0.15,  0.15 au

Time for grid setup =    0.982 sec

--------------
SCF ITERATIONS
--------------
ITER       Energy         Delta-E        Max-DP      RMS-DP      [F,P]     Damp
               ***  Starting incremental Fock matrix formation  ***
                      *** Initiating the SOSCF procedure ***
                      *** Re-Reading the Fockian *** 
                      *** Removing any level shift *** 
ITER      Energy       Delta-E        Grad      Rot      Max-DP    RMS-DP
  0   -327.19396960 -327.1939695989  0.000275  0.000275  0.000607  0.000014
               *** Restarting incremental Fock matrix formation ***
  1   -327.19398039  -0.0000107896  0.000092  0.000214  0.000316  0.000007
  2   -327.19398149  -0.0000011039  0.000024  0.000101  0.000067  0.000002
  3   -327.19398149  -0.0000000018  0.000050  0.000075  0.000043  0.000001
  4   -327.19398152  -0.0000000233  0.000009  0.000010  0.000025  0.000000
  5   -327.19398152  -0.0000000015  0.000003  0.000003  0.000010  0.000000
                  ***Gradient check signals convergence***
              ***Rediagonalizing the Fockian in SOSCF/NRSCF***

               *****************************************************
               *                     SUCCESS                       *
               *           SCF CONVERGED AFTER   6 CYCLES          *
               *****************************************************

Setting up the final grid:

General Integration Accuracy     IntAcc      ...  5.010
Radial Grid Type                 RadialGrid  ... Gauss-Chebyshev
Angular Grid (max. acc.)         AngularGrid ... Lebedev-434
Angular grid pruning method      GridPruning ... 3 (G Style)
Weight generation scheme         WeightScheme... Becke
Basis function cutoff            BFCut       ...    1.0000e-11
Integration weight cutoff        WCut        ...    1.0000e-14
Grids for H and He will be reduced by one unit

# of grid points (after initial pruning)     ... 155226 (   0.0 sec)
# of grid points (after weights+screening)   ... 140754 (   4.7 sec)
nearest neighbour list constructed           ...    0.0 sec
Grid point re-assignment to atoms done       ...    0.1 sec
Grid point division into batches done        ...    1.2 sec
Reduced shell lists constructed in    1.5 sec

Total number of grid points                  ...   140754
Total number of batches                      ...     2208
Average number of points per batch           ...       63
Average number of grid points per atom       ...     7408
Average number of shells per batch           ...    92.24 (73.79%)
Average number of basis functions per batch  ...   217.67 (75.32%)
Average number of large shells per batch     ...    74.40 (80.66%)
Average number of large basis fcns per batch ...   175.78 (80.76%)
Maximum spatial batch extension              ...   2.10,  2.96,  1.97 au
Average spatial batch extension              ...   0.10,  0.10,  0.10 au

Final grid set up in    7.5 sec
Final integration                            ... done (   1.4 sec)
Change in XC energy                          ...     0.000152324
Integrated number of electrons               ...    55.999978159
Previous integrated no of electrons          ...    55.998941395
Total Energy       :         -327.19382920 Eh           -8903.39673 eV
  Last Energy change         ...   -1.2390e-09  Tolerance :   1.0000e-08
  Last MAX-Density change    ...    3.1173e-06  Tolerance :   1.0000e-07
             **** THE GBW FILE WAS UPDATED (5720_+.gbw) ****
             **** DENSITY FILE WAS UPDATED (5720_+.scfp.tmp) ****
             **** ENERGY FILE WAS UPDATED (5720_+.en.tmp) ****
Total SCF time: 0 days 0 hours 1 min 4 sec 
           ************************************************************
           *              Shut down parallel processing               *
           ************************************************************

-------------------------   --------------------
FINAL SINGLE POINT ENERGY      -327.193829196315
-------------------------   --------------------



           ************************************************************
           *        Program running with 8 parallel MPI-processes     *
           *              working on a common directory               *
           ************************************************************
------------------------------------------------------------------------------
                         ORCA SCF GRADIENT CALCULATION
------------------------------------------------------------------------------

Gradient of the Kohn-Sham DFT energy:
Kohn-Sham wavefunction type      ... RKS
Hartree-Fock exchange scaling    ...    0.250
Number of operators              ...    1
Number of atoms                  ...   19
Basis set dimensions             ...  289
Integral neglect threshold       ... 2.5e-11
Integral primitive cutoff        ... 2.5e-12

Nuclear repulsion gradient       ... done
One Electron Gradient            ... done
Pre-screening matrix             ... done
Starting the two electron gradient:
Two electron gradient done
Exchange-correlation gradient    ... done

------------------
CARTESIAN GRADIENT
------------------

   1   C   :    0.000001876    0.000028842    0.000055798
   2   N   :    0.000106011   -0.000005746   -0.000073258
   3   C   :   -0.000009999    0.000032689   -0.000013857
   4   C   :    0.000072898    0.000057417    0.000090579
   5   C   :   -0.000007553    0.000016768   -0.000002148
   6   O   :   -0.000012446   -0.000069155   -0.000062849
   7   C   :   -0.000020910    0.000060006   -0.000014135
   8   H   :   -0.000013735    0.000004567   -0.000016767
   9   H   :   -0.000015969    0.000002601   -0.000003100
  10   H   :   -0.000030840   -0.000028884   -0.000007239
  11   H   :   -0.000028783   -0.000010763    0.000029018
  12   H   :    0.000022295   -0.000015124   -0.000010646
  13   H   :   -0.000027999    0.000017995    0.000016865
  14   H   :    0.000012561   -0.000032152   -0.000024813
  15   H   :   -0.000052407    0.000009409    0.000005090
  16   H   :   -0.000019538   -0.000018814    0.000019365
  17   H   :    0.000013686   -0.000002613    0.000017078
  18   H   :   -0.000006096   -0.000047214    0.000014248
  19   H   :    0.000016947    0.000000173   -0.000019227

Norm of the cartesian gradient     ...    0.000261227
RMS gradient                       ...    0.000034600
MAX gradient                       ...    0.000106011

-------
TIMINGS
-------

Total SCF gradient time            ...       42.838 sec

One electron gradient       ....       0.223 sec  (  0.5%)
Prescreening matrices       ....       0.655 sec  (  1.5%)
Two electron gradient       ....      26.638 sec  ( 62.2%)
XC gradient                 ....       4.412 sec  ( 10.3%)
           ************************************************************
           *              Shut down parallel processing               *
           ************************************************************
------------------------------------------------------------------------------
                         ORCA GEOMETRY RELAXATION STEP
------------------------------------------------------------------------------

Reading the OPT-File                    .... done
Getting information on internals        .... done
Copying old internal coords+grads       .... done
Making the new internal coordinates     .... (new redundants).... done
Validating the new internal coordinates .... (new redundants).... done
Calculating the B-matrix                .... done
Calculating the G,G- and P matrices     .... done
Transforming gradient to internals      .... done
Projecting the internal gradient        .... done
Number of atoms                         ....  19
Number of internal coordinates          ....  82
Current Energy                          ....  -327.193829196 Eh
Current gradient norm                   ....     0.000261227 Eh/bohr
Maximum allowed component of the step   ....  0.300
Current trust radius                    ....  0.300
Updating the Hessian (BFGS)             .... done
Forming the augmented Hessian           .... done
Diagonalizing the augmented Hessian     .... done
Last element of RFO vector              ....  0.999920648
Lowest eigenvalues of augmented Hessian:
 -0.000000918  0.005039641  0.013051203  0.013938444  0.019501476
Length of the computed step             ....  0.012598506
The final length of the internal step   ....  0.012598506
Converting the step to cartesian space:
 Initial RMS(Int)=    0.0013912722
Transforming coordinates:
 Iter   0:  RMS(Cart)=    0.0030413998 RMS(Int)=    0.0013912329
 Iter   1:  RMS(Cart)=    0.0000048838 RMS(Int)=    0.0000030175
 Iter   2:  RMS(Cart)=    0.0000000175 RMS(Int)=    0.0000000074
done
Storing new coordinates                 .... done

                                .--------------------.
          ----------------------|Geometry convergence|---------------------
          Item                value                 Tolerance   Converged
          -----------------------------------------------------------------
          Energy change      -0.00000100            0.00000100      YES
          RMS gradient        0.00002476            0.00003000      YES
          MAX gradient        0.00008226            0.00010000      YES
          RMS step            0.00139127            0.00060000      NO
[...]
     18      -0.014444   0.000330  -0.014170   0.044996   0.000577  -0.000131
     19      -0.000593   0.000011  -0.000400   0.001751   0.000031  -0.000006
     20      -0.031730   0.000042   0.005076  -0.015920  -0.000428   0.000095
     21       0.240728  -0.009065  -0.030030   0.000224  -0.051197  -0.181494
     22       0.009292  -0.000199  -0.001026   0.000010  -0.002674  -0.009614
     23      -0.072979   0.010244   0.015380   0.000183  -0.144399  -0.539784
     24      -0.271896   0.013584   0.010953  -0.000202   0.090388   0.312619
     25      -0.229315   0.006448   0.000620   0.000338  -0.128640  -0.440979
     26      -0.121953   0.000436  -0.001866  -0.000077   0.032980   0.107910
     27      -0.288411   0.013797   0.010989  -0.000188   0.079495   0.275134
     28       0.206520  -0.005380   0.000216  -0.000370   0.134442   0.460751
     29      -0.124799   0.000618  -0.001980  -0.000079   0.031418   0.102557
     30       0.024386  -0.500124  -0.025024  -0.000311   0.006854  -0.007748
     31      -0.024374  -0.455304  -0.017813   0.000381  -0.009245   0.009437
     32      -0.099327  -0.191496  -0.002432   0.000091  -0.001926  -0.001635
     33       0.022041  -0.531871  -0.026593  -0.000286   0.006019  -0.006969
     34       0.025473   0.415083   0.016041  -0.000411   0.009533  -0.009813
     35      -0.098697  -0.195296  -0.002511   0.000084  -0.001923  -0.001511
     36      -0.123578   0.012951   0.148005   0.004650  -0.384681   0.106373
     37      -0.108152   0.005038   0.051738  -0.007327   0.547284  -0.151454
     38      -0.044333   0.010181  -0.078066   0.002219  -0.124797   0.035872
     39      -0.130198   0.013290   0.150706   0.004163  -0.346977   0.095879
     40       0.099622  -0.004065  -0.043054   0.007608  -0.568353   0.157230
     41      -0.045566   0.010296  -0.077158   0.002135  -0.117773   0.033924
     42      -0.122530   0.030366  -0.030825   0.006034  -0.004212   0.001119
     43      -0.004642   0.001168  -0.003262   0.000145  -0.000112   0.000032
     44      -0.175167   0.043011  -0.470458  -0.006790   0.003266  -0.000708
     45      -0.233313   0.058755  -0.315473  -0.003025  -0.000941   0.000078
     46      -0.007052   0.001622  -0.008495  -0.000113  -0.000049   0.000002
     47       0.061405  -0.018920   0.339318  -0.003939  -0.004320  -0.000008
     48      -0.338077   0.006274   0.141428   0.178216   0.002287  -0.000483
     49      -0.009753   0.000173   0.003931   0.007177   0.000090  -0.000020
     50       0.171405  -0.003872  -0.083453   0.299033   0.003513  -0.000670
     51       0.284386  -0.005238   0.028958  -0.351364  -0.004790   0.001122
     52      -0.199811   0.003374  -0.026639  -0.563191  -0.007123   0.001660
     53       0.198749  -0.003384  -0.095299  -0.042376   0.000004  -0.000018
     54       0.271301  -0.005016   0.027249  -0.381553  -0.005101   0.001205
     55       0.218989  -0.003724   0.027345   0.534721   0.006642  -0.001560
     56       0.196358  -0.003349  -0.095529  -0.047547  -0.000048  -0.000007
                 48         49         50         51         52         53    
      0      -0.000004  -0.000031   0.000111   0.057123   0.010380  -0.003062
      1       0.000025   0.001331  -0.000005  -0.007929  -0.002516  -0.095436
      2      -0.000002   0.000024   0.000136   0.074359   0.013653  -0.008070
      3       0.000001  -0.000110  -0.000001  -0.001726   0.000922   0.000041
      4      -0.000009   0.003093  -0.000001   0.000282   0.000126   0.003182
      5      -0.000001  -0.000015   0.000000  -0.000876  -0.000251   0.000089
      6       0.000026   0.002804  -0.000049   0.000690   0.000331  -0.000064
      7      -0.000697  -0.095345   0.000003  -0.000042  -0.000007  -0.000856
      8       0.000005   0.000463  -0.000059  -0.000111  -0.000398   0.000025
      9      -0.000011   0.000021   0.000437  -0.001499   0.007743  -0.000088
     10       0.000393  -0.000636   0.000011  -0.000038   0.000246   0.000088
     11       0.000007   0.000004  -0.000880  -0.000467   0.001603  -0.000001
     12       0.000003   0.000000  -0.001539   0.010950  -0.058263   0.000686
     13      -0.000035  -0.000091  -0.000044   0.000377  -0.001999   0.000027
     14       0.000001  -0.000001   0.000766   0.007484  -0.038956   0.000445
     15      -0.000003  -0.000003  -0.000242  -0.000016   0.000120  -0.000002
     16       0.000238   0.000075  -0.000007  -0.000001   0.000007  -0.000004
     17      -0.000008  -0.000001  -0.000003  -0.000166   0.000867  -0.000010
     18       0.003018  -0.000021   0.060705   0.000033  -0.000755   0.000016
     19      -0.095052   0.000708   0.002003  -0.000003  -0.000030  -0.000019
     20       0.000238   0.000002   0.070363   0.000033  -0.000947   0.000020
     21       0.000004  -0.000136  -0.000507  -0.249539  -0.045457   0.028911
     22       0.000015   0.001528  -0.000029  -0.015032  -0.002911  -0.013904
     23       0.000017  -0.000289  -0.001517  -0.743285  -0.134969   0.084374
     24       0.000099   0.003932  -0.000431  -0.267667  -0.052331  -0.373556
     25      -0.000162  -0.006777   0.000621   0.392165   0.076933   0.514333
     26       0.000053   0.002822  -0.000120  -0.085407  -0.017297  -0.133010
     27      -0.000063  -0.003518  -0.000310  -0.157915  -0.023914   0.380787
     28      -0.000133  -0.007315  -0.000534  -0.283443  -0.044276   0.627503
     29      -0.000044  -0.002833  -0.000087  -0.051488  -0.007999   0.144189
     30      -0.000029   0.012950   0.000096   0.009110  -0.002644   0.008021
     31      -0.000011  -0.018174   0.000081  -0.017745  -0.000390  -0.016887
     32      -0.000143  -0.003639  -0.000078   0.008090   0.002126   0.009454
     33       0.000024  -0.011641   0.000107   0.006138  -0.003085  -0.008111
     34      -0.000014  -0.019158  -0.000068   0.014198  -0.000930  -0.021099
     35       0.000143   0.003832  -0.000075   0.005728   0.001462  -0.010937
     36      -0.002590  -0.412858  -0.000162  -0.003033  -0.004487  -0.004262
     37       0.003514   0.551524  -0.000011   0.005653   0.004057   0.005264
     38      -0.000583  -0.130068   0.000247  -0.002363  -0.000428  -0.002530
     39       0.002305   0.379530  -0.000199  -0.001932  -0.004009   0.004761
     40       0.003590   0.581869  -0.000052  -0.004822  -0.004055   0.007090
     41       0.000530   0.124548   0.000235  -0.001790  -0.000244   0.002971
     42      -0.000068   0.000055   0.015847  -0.080198   0.425241  -0.004964
     43       0.001367  -0.000579   0.000421  -0.002176   0.011380  -0.000415
     44      -0.000008  -0.000029  -0.014478   0.067682  -0.359064   0.004206
     45       0.000024  -0.000008  -0.000128  -0.031634   0.167014  -0.001953
     46      -0.001255   0.000625   0.000007  -0.001729   0.009165   0.000001
     47      -0.000020   0.000041   0.003256  -0.149990   0.790381  -0.009196
     48       0.002739  -0.000041  -0.480178  -0.000463   0.007378  -0.000134
     49      -0.021032   0.000033  -0.019069  -0.000017   0.000286  -0.000005
     50       0.003627  -0.000067  -0.807213  -0.000482   0.010721  -0.000208
     51       0.383885  -0.002170  -0.113461  -0.000232   0.002363   0.000018
     52       0.583954  -0.003694  -0.201067  -0.000277   0.003688   0.000030
     53       0.055031  -0.000625  -0.007881  -0.000303   0.001714  -0.000009
     54      -0.422432   0.002421  -0.127757  -0.000288   0.002575  -0.000116
     55       0.562877  -0.003578   0.196376   0.000313  -0.003499   0.000174
     56      -0.061420   0.000668  -0.010239  -0.000313   0.001753  -0.000039
                  54         55         56    
      0      -0.000060  -0.001897  -0.000069
      1       0.000002  -0.000046   0.002462
      2      -0.000175  -0.000833   0.000002
      3      -0.000816  -0.055571  -0.002277
      4      -0.000027  -0.001096   0.081357
      5      -0.000092  -0.019002  -0.000051
      6       0.000699  -0.001635  -0.000086
      7       0.000024  -0.000017   0.003041
      8       0.000267  -0.001834  -0.000007
      9       0.000772   0.000765  -0.000000
     10       0.000028   0.000023  -0.000005
     11       0.001199  -0.000017   0.000004
     12      -0.044805  -0.000453  -0.000005
     13      -0.000951  -0.000012   0.000260
     14       0.086937  -0.000882   0.000004
     15      -0.000407  -0.000168   0.000001
     16      -0.000013  -0.000006  -0.000039
     17      -0.000135   0.000090  -0.000006
     18      -0.001287   0.000085  -0.000001
     19      -0.000045   0.000002  -0.000033
     20      -0.000831  -0.000031   0.000002
     21       0.000350   0.003786  -0.000004
     22       0.000017   0.000198  -0.001250
     23       0.000764   0.011846  -0.000155
     24      -0.000180   0.013550   0.014552
     25      -0.000168  -0.012678  -0.016829
     26       0.000254   0.000644   0.001639
     27      -0.000207   0.012145  -0.013546
     28       0.000119   0.013174  -0.018312
     29       0.000236   0.000490  -0.001505
     30       0.004483   0.410162   0.415012
     31      -0.003188  -0.568391  -0.538596
     32      -0.000174   0.138342   0.141582
     33       0.004185   0.356884  -0.383461
     34       0.003459   0.583487  -0.584938
     35      -0.000172   0.130178  -0.140811
     36      -0.000288   0.008123   0.011050
     37       0.000827  -0.010120  -0.017413
     38      -0.000700   0.006551   0.006164
     39      -0.000245   0.007220  -0.010101
     40      -0.000860   0.010253  -0.018308
     41      -0.000689   0.006295  -0.006109
     42       0.649359  -0.001458  -0.000022
     43       0.017588   0.000004   0.000814
     44      -0.508002   0.001379  -0.000027
     45      -0.126134   0.002398   0.000053
     46      -0.006648   0.000001  -0.003524
     47      -0.542217   0.009430  -0.000036
     48       0.007312  -0.000068  -0.000005
     49       0.000274  -0.000001  -0.000005
     50       0.009177   0.000169  -0.000010
     51       0.005513  -0.000249   0.000094
     52       0.009063  -0.000226   0.000133
     53       0.001725   0.000074   0.000007
     54       0.006056  -0.000268  -0.000085
     55      -0.008677   0.000218   0.000118
     56       0.001818   0.000068  -0.000008


-----------
IR SPECTRUM
-----------

 Mode    freq (cm**-1)   T**2         TX         TY         TZ
-------------------------------------------------------------------
   6:        44.65    0.359702  (  0.022817  -0.599311   0.002731)
   7:        88.26    2.635042  (  0.059201  -1.622147   0.013287)
   8:       143.44   13.819094  (  0.113158  -3.715618   0.021752)
   9:       162.24    1.963960  ( -1.078318  -0.031320   0.894544)
  10:       229.04    1.786343  ( -0.053556   1.335430  -0.010080)
  11:       234.38    0.013010  (  0.005025  -0.113738   0.006972)
  12:       318.96   11.112533  (  0.806004   0.042198   3.234364)
  13:       353.26   14.961914  (  1.803278   0.043787  -3.421723)
  14:       423.77    1.608248  ( -0.515636  -0.024666  -1.158343)
  15:       508.56    2.545703  ( -0.051644   1.594690  -0.000548)
  16:       589.71    3.761464  ( -1.586451  -0.057059  -1.114173)
  17:       702.35    4.667239  ( -0.074469   2.158981  -0.022211)
  18:       821.02   14.588960  (  0.138912  -3.816974   0.019416)
  19:       837.34   61.312656  (  0.250391  -7.826122   0.042135)
  20:       906.34   14.733490  (  3.471412   0.120042  -1.633517)
  21:       940.16   21.045744  ( -4.115677  -0.130400  -2.022360)
  22:       956.62    1.749005  (  1.040279   0.031009  -0.816005)
  23:       974.59    1.547184  ( -0.053720   1.242691  -0.004075)
  24:      1054.18    1.812243  ( -1.316363  -0.042383   0.278634)
  25:      1088.34   89.320101  ( -3.539578  -0.069779   8.762797)
  26:      1144.03    0.000216  ( -0.006162  -0.003660  -0.012822)
  27:      1173.67    0.918166  (  0.027070  -0.957807   0.006208)
  28:      1179.91    0.396608  (  0.601180   0.025345   0.185871)
  29:      1217.52    6.286868  ( -1.506936  -0.054019  -2.003270)
  30:      1306.33    2.261529  (  0.047472  -1.502819  -0.028489)
  31:      1316.34  104.111546  (  0.241338  -0.029467 -10.200609)
  32:      1382.81  187.430181  ( -2.246513  -0.031540  13.504902)
  33:      1387.29    0.607076  (  0.126497  -0.076417  -0.765006)
  34:      1437.48    8.268676  (  2.138270   0.058199  -1.921741)
  35:      1438.98    4.361368  (  2.009540   0.067985   0.564354)
  36:      1460.57    0.614133  ( -0.771202  -0.042871   0.132450)
  37:      1482.90   30.434823  (  4.947785   0.142957  -2.435942)
  38:      1487.46   16.395495  ( -0.133647   4.046908  -0.013012)
  39:      1488.72    0.322456  (  0.112611   0.003973   0.556560)
  40:      1493.13   23.428184  (  0.196080  -4.835195   0.103064)
  41:      1496.65   46.868909  ( -2.222088  -0.165467  -6.473319)
  42:      1500.22    6.371267  ( -2.508548  -0.083913   0.267234)
  43:      1662.96   33.029724  ( -5.742235  -0.203586  -0.122540)
  44:      1724.68  155.048307  ( -8.100373  -0.289745  -9.452424)
  45:      3050.02   15.293974  (  2.572517   0.083633  -2.944339)
  46:      3090.25    0.482813  (  0.667689   0.023476  -0.190928)
  47:      3094.23    0.125761  ( -0.315499  -0.008724   0.161696)
  48:      3127.98   12.376570  (  0.116160  -3.516117  -0.001334)
  49:      3142.87    0.416077  ( -0.020994   0.644672  -0.005935)
  50:      3190.06    2.472474  (  0.652000   0.019811   1.430726)
  51:      3194.87    1.083085  ( -1.029329  -0.003668   0.153471)
  52:      3195.98    9.003322  (  2.407000   0.074601  -1.790002)
  53:      3197.71    0.083019  (  0.023739   0.284301   0.040351)
  54:      3278.66    3.141461  (  1.205919   0.043356   1.298207)
  55:      3432.39   39.161015  (  6.001135   0.142708   1.768342)
  56:      3477.57   70.518823  (  0.247230  -8.393814  -0.039792)

The first frequency considered to be a vibration is 6
The total number of vibrations considered is 51


--------------------------
THERMOCHEMISTRY AT 298.15K
--------------------------

Temperature         ... 298.15 K
Pressure            ... 1.00 atm
Total Mass          ... 102.16 AMU

Throughout the following assumptions are being made:
  (1) The electronic state is orbitally nondegenerate
  (2) There are no thermally accessible electronically excited states
  (3) Hindered rotations indicated by low frequency modes) are not
      treated as such but are treated as vibrations and this may
      case some error
  (4) All equations used are the standard statistical mechanics
      equations for an ideal gas
  (5) All vibrations are strinctly harmonic


------------
INNER ENERGY
------------

The inner energy is: U= E(el) + E(ZPE) + E(vib) + E(rot) + E(trans)
    E(el)   - is the total energy from the electronic structure calculation
              = E(kin-el) + E(nuc-el) + E(el-el) + E(nuc-nuc)
    E(ZPE)  - the the zero temperature vibrational energy from the frequency calculation
    E(vib)  - the the finite temperature correction to E(ZPE) due to population
              of excietd vibrational states
    E(rot)  - is the rotational thermal energy
    E(trans)- is the translational thermal energy

Summary of contributions to the inner energy U:
Electronic energy                ...   -327.19382975 Eh
Zero point energy                ...      0.17457925 Eh     109.55 kcal/mol
Thermal vibrational correction   ...      0.00598722 Eh       3.76 kcal/mol
Thermal rotational correction    ...      0.00141627 Eh       0.89 kcal/mol
Thermal translational correction ...      0.00141627 Eh       0.89 kcal/mol
-----------------------------------------------------------------------
Total thermal energy                   -327.01043074 Eh


Summary of corrections to the electronic energy:
(perhaps to be used in another calculation)
Total thermal correction                  0.00881976 Eh       5.53 kcal/mol
Non-thermal (ZPE) correction              0.17457925 Eh     109.55 kcal/mol
-----------------------------------------------------------------------
Total correction                          0.18339901 Eh     115.08 kcal/mol


--------
ENTHALPY
--------

The enthalpy is H = U + kB*T
                kB is Boltzmann's constant
Total free energy                 ...   -327.01043074 Eh 
Thermal Enthalpy correction       ...      0.00094421 Eh       0.59 kcal/mol
-----------------------------------------------------------------------
Total Enthalpy                    ...   -327.00948653 Eh


-------
ENTROPY
-------

The entropy contributions are T*S = T*(S(el)+S(vib)+S(rot)+S(trans)
     S(el)   - electronic entropy
     S(vib)  - vibrational entropy
     S(rot)  - rotational entropy
     S(trans)- translational entropy
The entropies will be listed as mutliplied by the temperature to get
units of energy

Electronic entropy                ...      0.00000000 Eh      0.00 kcal/mol
Vibrational entropy               ...      0.01134976 Eh      7.12 kcal/mol
Rotational entropy                ...      0.01221431 Eh      7.66 kcal/mol
Translational entropy             ...      0.01890147 Eh     11.86 kcal/mol
-----------------------------------------------------------------------
Final entropy term                ...      0.04246554 Eh     26.65 kcal/mol


CAUTION: The rotational entropy is not quite correctly treated here
         because it includes a symmetry number that is not yet correctly
         implemented in ORCA!
For a nonlinear molecule the correct rotational entropy is:
    S(rot) = R*(ln(qrot/sn)+1.5)
    R    = 8.31441 J/mol/K = 1.987191683e-3 kcal/mol/K
    qrot = 277901.1226352
    sn is the rotational symmetry number. We have assumed 3 here
       if it is different for your molecule then you should correct
       the printed rotational entropy by manually evaluating the equation
       as given above

For convenience we print out the resulting values for sn=1 - 12:
 sn= 1  qrot/sn=  277901.1226 T*S(rot)=     8.32 kcal/mol T*S(tot)=    27.30 kcal/mol
 sn= 2  qrot/sn=  138950.5613 T*S(rot)=     7.90 kcal/mol T*S(tot)=    26.89 kcal/mol
 sn= 3  qrot/sn=   92633.7075 T*S(rot)=     7.66 kcal/mol T*S(tot)=    26.65 kcal/mol
 sn= 4  qrot/sn=   69475.2807 T*S(rot)=     7.49 kcal/mol T*S(tot)=    26.48 kcal/mol
 sn= 5  qrot/sn=   55580.2245 T*S(rot)=     7.36 kcal/mol T*S(tot)=    26.34 kcal/mol
 sn= 6  qrot/sn=   46316.8538 T*S(rot)=     7.25 kcal/mol T*S(tot)=    26.24 kcal/mol
 sn= 7  qrot/sn=   39700.1604 T*S(rot)=     7.16 kcal/mol T*S(tot)=    26.15 kcal/mol
 sn= 8  qrot/sn=   34737.6403 T*S(rot)=     7.08 kcal/mol T*S(tot)=    26.07 kcal/mol
 sn= 9  qrot/sn=   30877.9025 T*S(rot)=     7.01 kcal/mol T*S(tot)=    26.00 kcal/mol
 sn=10  qrot/sn=   27790.1123 T*S(rot)=     6.95 kcal/mol T*S(tot)=    25.93 kcal/mol
 sn=11  qrot/sn=   25263.7384 T*S(rot)=     6.89 kcal/mol T*S(tot)=    25.88 kcal/mol
 sn=12  qrot/sn=   23158.4269 T*S(rot)=     6.84 kcal/mol T*S(tot)=    25.83 kcal/mol


-------------------
GIBBS FREE ENTHALPY
-------------------

The Gibbs free enthalpy is G = H - T*S

Total enthalpy                    ...   -327.00948653 Eh 
Total entropy correction          ...     -0.04246554 Eh    -26.65 kcal/mol
-----------------------------------------------------------------------
Final Gibbs free enthalpy         ...   -327.05195207 Eh

For completeness - the Gibbs free enthalpy minus the electronic energy
G-E(el)                           ...      0.14187769 Eh     89.03 kcal/mol


Timings for individual modules:

Sum of individual times         ...     3092.438 sec (=  51.541 min)
GTO integral calculation        ...       12.079 sec (=   0.201 min)   0.4 %
SCF iterations                  ...      338.565 sec (=   5.643 min)  10.9 %
SCF Gradient evaluation         ...      142.356 sec (=   2.373 min)   4.6 %
Geometry relaxation             ...        0.292 sec (=   0.005 min)   0.0 %
Analytical frequency calculation...     2599.147 sec (=  43.319 min)  84.0 %
                             ****ORCA TERMINATED NORMALLY****
TOTAL RUN TIME: 0 days 0 hours 51 minutes 34 seconds 538 msec
