
                                 *****************
                                 * O   R   C   A *
                                 *****************

           --- An Ab Initio, DFT and Semiempirical electronic structure package ---

                  #######################################################
                  #                        -***-                        #
                  #  Department of molecular theory and spectroscopy    #
                  #              Directorship: Frank Neese              #
                  # Max Planck Institute for Chemical Energy Conversion #
                  #                  D-45470 Muelheim/Ruhr              #
                  #                       Germany                       #
                  #                                                     #
                  #                  All rights reserved                #
                  #                        -***-                        #
                  #######################################################


                         Program Version 3.0.3 - RELEASE   -


 With contributions from (in alphabetic order):
   Ute Becker             : Parallelization
   Dmytro Bykov           : SCF Hessian
   Dmitry Ganyushin       : Spin-Orbit,Spin-Spin,Magnetic field MRCI
   Andreas Hansen         : Spin unrestricted coupled pair/coupled cluster methods
   Dimitrios Liakos       : Extrapolation schemes; parallel MDCI
   Robert Izsak           : Overlap fitted RIJCOSX, COSX-SCS-MP3
   Christian Kollmar      : KDIIS, OOCD, Brueckner-CCSD(T), CCSD density
   Simone Kossmann        : Meta GGA functionals, TD-DFT gradient, OOMP2, MP2 Hessian
   Taras Petrenko         : DFT Hessian,TD-DFT gradient, ASA and ECA modules, normal mode analysis, Resonance Raman, ABS, FL, XAS/XES, NRVS
   Christoph Reimann      : Effective Core Potentials
   Michael Roemelt        : Restricted open shell CIS
   Christoph Riplinger    : Improved optimizer, TS searches, QM/MM, DLPNO-CCSD
   Barbara Sandhoefer     : DKH picture change effects
   Igor Schapiro          : Molecular dynamics
   Kantharuban Sivalingam : CASSCF convergence, NEVPT2
   Boris Wezisla          : Elementary symmetry handling
   Frank Wennmohs         : Technical directorship


 We gratefully acknowledge several colleagues who have allowed us to
 interface, adapt or use parts of their codes:
   Stefan Grimme, W. Hujo, H. Kruse, T. Risthaus : VdW corrections, initial TS optimization,
                                                   DFT functionals, gCP
   Ed Valeev                                     : LibInt (2-el integral package), F12 methods
   Garnet Chan, S. Sharma, R. Olivares           : DMRG
   Ulf Ekstrom                                   : XCFun DFT Library
   Mihaly Kallay                                 : mrcc  (arbitrary order and MRCC methods)
   Andreas Klamt, Michael Diedenhofen            : otool_cosmo (COSMO solvation model)
   Frank Weinhold                                : gennbo (NPA and NBO analysis)
   Christopher J. Cramer and Donald G. Truhlar   : smd solvation model


 Your calculation uses the libint2 library for the computation of 2-el integrals
 For citations please refer to: http://libint.valeyev.net

 This ORCA versions uses:
   CBLAS   interface :  Fast vector & matrix operations
   LAPACKE interface :  Fast linear algebra routines
   SCALAPACK package :  Parallel linear algebra routines


Your calculation utilizes the basis: Ahlrichs-TZV
Cite in your paper:
H - Kr: A. Schaefer, H. Horn and R. Ahlrichs, J. Chem. Phys. 97, 2571 (1992).

The def2-TZV basis will be loaded
Cite in your paper:
 	F. Weigend, R. Ahlrichs, Phys. Chem. Chem. Phys. 2005, 7, 3297.

================================================================================
                                        WARNINGS
                       Please study these warnings very carefully!
================================================================================
Now building the actual basis set
WARNING: Geometry optimizations can change the point-group symmetry!

WARNING: Geometry Optimization
  ===> : Switching off AutoStart
         For restart on a previous wavefunction, please use MOREAD


INFO   : the flag for use of LIBINT has been found!

================================================================================
                                       INPUT FILE
================================================================================
NAME = 5721_+.inp
|  1> ! NORI PBE0 def2-TZVP UseSym TightOPT Freq TightSCF Grid3 FinalGrid5 XYZFile
|  2> % pal
|  3>     nprocs 8
|  4> end
|  5> %method
|  6>     SymThresh 5.0e-2
|  7> end
|  8> % geom 
|  9>     MaxIter 10
| 10> end 
| 11> % maxcore 2000
| 12> % output
| 13>     printlevel mini
| 14>     print[ P_Basis ] 0
| 15>     print[ P_SCFInfo ] 1
| 16>     print[ P_SCFIterInfo ] 1
| 17>     print[ P_OrbEn ] 0
| 18>     print[ P_Cartesian ] 0
| 19> end
| 20> % elprop
| 21>     Dipole false
| 22> end
| 23> *xyz 1 1
| 24>  C        1.3107738118    -0.5513929331     2.5524092634 
| 25>  N        2.7593029998    -0.3231895581     2.3325725189 
| 26>  C        3.2265968404    -0.5251943929     0.9282226141 
| 27>  C        4.7468539737    -0.6283433476     0.9382108622 
| 28>  C        5.4479748665     0.7079992981     1.0988802018 
| 29>  O        5.0069833703    -1.5253391565     1.9975758747 
| 30>  C        6.2976648852    -2.1157019083     2.0043531219 
| 31>  H        1.0773874749    -0.3791081992     3.6016305572 
| 32>  H        1.0764287297    -1.5793442648     2.2833873667 
| 33>  H        0.7438494065     0.1345523491     1.9260817500 
| 34>  H        3.0124051732     0.6152839538     2.6430629071 
| 35>  H        3.3363712644    -0.9719983531     2.8877713497 
| 36>  H        2.7841111237    -1.4630174254     0.5919852805 
| 37>  H        2.8572930776     0.2938784618     0.3115928783 
| 38>  H        5.0425787090    -1.0801417732    -0.0181435243 
| 39>  H        5.1940931338     1.2003869909     2.0433016704 
| 40>  H        5.1906039620     1.3776916947     0.2754677562 
| 41>  H        6.5304032403     0.5793987428     1.0859215049 
| 42>  H        6.3092624200    -2.8359563122     2.8202737646 
| 43>  H        7.0794541363    -1.3711654816     2.1752097349 
| 44>  H        6.4863174010    -2.6372183851     1.0607425466 
| 45> *
| 46> 
| 47>                          ****END OF INPUT****
================================================================================

The point group is C1 - hence turning off symmetry
If this is a round-off problem, please increase the symmetry
        detection tolerance (%method SymThresh)


                       *****************************
                       * Geometry Optimization Run *
                       *****************************

Geometry optimization settings:
Update method            Update   .... BFGS
Choice of coordinates    CoordSys .... Redundant Internals
Initial Hessian          InHess   .... Almoef's Model

Convergence Tolerances:
Energy Change            TolE     ....  1.0000e-06 Eh
Max. Gradient            TolMAXG  ....  1.0000e-04 Eh/bohr
RMS Gradient             TolRMSG  ....  3.0000e-05 Eh/bohr
Max. Displacement        TolMAXD  ....  1.0000e-03 bohr
RMS Displacement         TolRMSD  ....  6.0000e-04 bohr

------------------------------------------------------------------------------
                        ORCA OPTIMIZATION COORDINATE SETUP
------------------------------------------------------------------------------

The optimization will be done in new redundant internal coordinates
Making redundant internal coordinates   ...  (new redundants) done
Evaluating the initial hessian          ...  (Almloef) done
Evaluating the coordinates              ...  done
Calculating the B-matrix                .... done
Calculating the G-matrix                .... done
Diagonalizing the G-matrix              .... done
Small eigenvalue found = 1.571e-02
The first mode is                       ....   42
The number of degrees of freedom        ....   57

    -----------------------------------------------------------------
                    Redundant Internal Coordinates


    -----------------------------------------------------------------
         Definition                    Initial Value    Approx d2E/dq
    -----------------------------------------------------------------
      1. B(N   1,C   0)                  1.4828         0.397968   
      2. B(C   2,N   1)                  1.4938         0.382214   
      3. B(C   3,C   2)                  1.5238         0.382202   
      4. B(C   4,C   3)                  1.5176         0.390945   
      5. B(O   5,C   3)                  1.4123         0.515627   
      6. B(C   6,O   5)                  1.4193         0.502479   
      7. B(H   7,C   0)                  1.0886         0.361977   
      8. B(H   8,C   0)                  1.0881         0.362614   
      9. B(H   9,C   0)                  1.0882         0.362470   
     10. B(H  10,N   1)                  1.0204         0.416502   
     11. B(H  11,N   1)                  1.0306         0.401120   
     12. B(H  12,C   2)                  1.0901         0.359942   
     13. B(H  13,C   2)                  1.0897         0.360466   
     14. B(H  14,C   3)                  1.0983         0.349329   
     15. B(H  15,C   4)                  1.0949         0.353660   
     16. B(H  16,C   4)                  1.0921         0.357301   
     17. B(H  17,C   4)                  1.0901         0.359944   
     18. B(H  18,C   6)                  1.0884         0.362215   
     19. B(H  19,C   6)                  1.0930         0.356110   
     20. B(H  20,C   6)                  1.0945         0.354172   
     21. A(N   1,C   0,H   8)          108.6105         0.326121   
     22. A(H   7,C   0,H   8)          109.9768         0.291396   
     23. A(H   8,C   0,H   9)          109.9374         0.291458   
     24. A(N   1,C   0,H   7)          109.1464         0.326027   
     25. A(H   7,C   0,H   9)          110.0774         0.291377   
     26. A(N   1,C   0,H   9)          109.0620         0.326100   
     27. A(C   2,N   1,H  10)          109.4418         0.328623   
     28. A(C   0,N   1,H  11)          111.7298         0.328773   
     29. A(C   0,N   1,H  10)          109.8006         0.330823   
     30. A(C   0,N   1,C   2)          115.0983         0.364166   
     31. A(H  10,N   1,H  11)          106.0326         0.297801   
     32. A(C   2,N   1,H  11)          104.2503         0.326591   
     33. A(H  12,C   2,H  13)          109.5441         0.290866   
     34. A(C   3,C   2,H  13)          113.1227         0.325592   
     35. A(N   1,C   2,H  13)          108.9246         0.323647   
     36. A(C   3,C   2,H  12)          110.4110         0.325514   
     37. A(N   1,C   2,H  12)          106.2206         0.323570   
     38. A(N   1,C   2,C   3)          108.3665         0.363923   
     39. A(C   2,C   3,C   4)          113.7034         0.367624   
     40. A(O   5,C   3,H  14)          110.0176         0.338322   
     41. A(C   4,C   3,H  14)          109.2704         0.325123   
     42. A(C   2,C   3,H  14)          106.9047         0.323918   
     43. A(C   4,C   3,O   5)          113.2513         0.384709   
     44. A(C   2,C   3,O   5)          103.3958         0.383199   
     45. A(H  15,C   4,H  17)          107.0702         0.289997   
     46. A(C   3,C   4,H  17)          110.7070         0.326729   
     47. A(H  15,C   4,H  16)          108.6583         0.289662   
     48. A(C   3,C   4,H  16)          110.5644         0.326332   
     49. A(C   3,C   4,H  15)          112.3449         0.325783   
     50. A(H  16,C   4,H  17)          107.3000         0.290463   
     51. A(C   3,O   5,C   6)          115.8024         0.399418   
     52. A(H  19,C   6,H  20)          109.6360         0.289576   
     53. A(H  18,C   6,H  20)          109.2166         0.290349   
     54. A(O   5,C   6,H  20)          110.5373         0.337643   
     55. A(H  18,C   6,H  19)          109.0238         0.290598   
     56. A(O   5,C   6,H  19)          111.5826         0.337950   
     57. A(O   5,C   6,H  18)          106.7697         0.338909   
     58. D(H  10,N   1,C   0,H   9)     64.2739         0.014476   
     59. D(H  11,N   1,C   0,H   9)   -178.3723         0.014476   
     60. D(H  11,N   1,C   0,H   8)    -58.5680         0.014476   
     61. D(H  10,N   1,C   0,H   7)    -56.0203         0.014476   
     62. D(C   2,N   1,C   0,H   9)    -59.7327         0.014476   
     63. D(C   2,N   1,C   0,H   8)     60.0715         0.014476   
     64. D(C   2,N   1,C   0,H   7)    179.9731         0.014476   
     65. D(H  10,N   1,C   0,H   8)   -175.9219         0.014476   
     66. D(H  11,N   1,C   0,H   7)     61.3335         0.014476   
     67. D(H  12,C   2,N   1,H  10)   -170.4096         0.013374   
     68. D(C   3,C   2,N   1,H  11)    -42.1171         0.013374   
     69. D(C   3,C   2,N   1,H  10)     70.9513         0.013374   
     70. D(C   3,C   2,N   1,C   0)   -164.8532         0.013374   
     71. D(H  12,C   2,N   1,H  11)     76.5220         0.013374   
     72. D(H  13,C   2,N   1,H  11)   -165.5701         0.013374   
     73. D(H  13,C   2,N   1,H  10)    -52.5018         0.013374   
     74. D(H  13,C   2,N   1,C   0)     71.6937         0.013374   
     75. D(H  12,C   2,N   1,C   0)    -46.2141         0.013374   
     76. D(H  14,C   3,C   2,H  12)     46.7336         0.011636   
     77. D(H  14,C   3,C   2,N   1)    162.6839         0.011636   
     78. D(O   5,C   3,C   2,H  13)    167.4574         0.011636   
     79. D(O   5,C   3,C   2,H  12)    -69.3801         0.011636   
     80. D(O   5,C   3,C   2,N   1)     46.5702         0.011636   
     81. D(C   4,C   3,C   2,H  13)     44.2443         0.011636   
     82. D(C   4,C   3,C   2,H  12)    167.4068         0.011636   
     83. D(H  14,C   3,C   2,H  13)    -76.4289         0.011636   
     84. D(C   4,C   3,C   2,N   1)    -76.6429         0.011636   
     85. D(H  16,C   4,C   3,C   2)    -60.4521         0.012148   
     86. D(H  15,C   4,C   3,H  14)   -179.5398         0.012148   
     87. D(H  15,C   4,C   3,O   5)    -56.5221         0.012148   
     88. D(H  15,C   4,C   3,C   2)     61.1252         0.012148   
     89. D(H  17,C   4,C   3,H  14)    -59.8917         0.012148   
     90. D(H  17,C   4,C   3,O   5)     63.1260         0.012148   
     91. D(H  17,C   4,C   3,C   2)   -179.2267         0.012148   
     92. D(H  16,C   4,C   3,H  14)     58.8829         0.012148   
     93. D(H  16,C   4,C   3,O   5)   -178.0994         0.012148   
     94. D(C   6,O   5,C   3,H  14)     48.4733         0.021065   
     95. D(C   6,O   5,C   3,C   4)    -74.1307         0.021065   
     96. D(C   6,O   5,C   3,C   2)    162.3580         0.021065   
     97. D(H  20,C   6,O   5,C   3)    -56.5259         0.019967   
     98. D(H  19,C   6,O   5,C   3)     65.7570         0.019967   
     99. D(H  18,C   6,O   5,C   3)   -175.2101         0.019967   
    -----------------------------------------------------------------

Number of atoms                         .... 21
Number of degrees of freedom            .... 99

         *************************************************************
         *                GEOMETRY OPTIMIZATION CYCLE   1            *
         *************************************************************


           ************************************************************
           *        Program running with 8 parallel MPI-processes     *
           *              working on a common directory               *
           ************************************************************
           ************************************************************
           *              Shut down parallel processing               *
           ************************************************************


           ************************************************************
           *        Program running with 8 parallel MPI-processes     *
           *              working on a common directory               *
           ************************************************************
------------
SCF SETTINGS
------------
Hamiltonian:
 Density Functional     Method          .... DFT(GTOs)
 Exchange Functional    Exchange        .... PBE
   PBE kappa parameter  XKappa          ....  0.804000
 Correlation Functional Correlation     .... PBE
 LDA part of GGA corr.  LDAOpt          .... PW91-LDA
 Gradients option       PostSCFGGA      .... off
 Hybrid DFT is turned on
   Fraction HF Exchange ScalHFX         ....  0.250000
   Scaling of DF-GGA-X  ScalDFX         ....  0.750000
   Scaling of DF-GGA-C  ScalDFC         ....  1.000000
   Scaling of DF-LDA-C  ScalLDAC        ....  1.000000
   Perturbative correction              ....  0.000000
   NL short-range parameter             ....  6.900000


General Settings:
 Integral files         IntName         .... 5721_+
 Hartree-Fock type      HFTyp           .... RHF
 Total Charge           Charge          ....    1
 Multiplicity           Mult            ....    1
 Number of Electrons    NEL             ....   58
 Basis Dimension        Dim             ....  301
 Nuclear Repulsion      ENuc            ....    351.6226897677 Eh

Convergence Acceleration:
 DIIS                   CNVDIIS         .... on
   Start iteration      DIISMaxIt       ....    12
   Startup error        DIISStart       ....  0.200000
   # of expansion vecs  DIISMaxEq       ....     5
   Bias factor          DIISBfac        ....   1.050
   Max. coefficient     DIISMaxC        ....  10.000
 Newton-Raphson         CNVNR           .... off
 SOSCF                  CNVSOSCF        .... on
   Start iteration      SOSCFMaxIt      ....   150
   Startup grad/error   SOSCFStart      ....  0.003300
 Level Shifting         CNVShift        .... on
   Level shift para.    LevelShift      ....    0.2500
   Turn off err/grad.   ShiftErr        ....    0.0010
 Zerner damping         CNVZerner       .... off
 Static damping         CNVDamp         .... on
   Fraction old density DampFac         ....    0.7000
   Max. Damping (<1)    DampMax         ....    0.9800
   Min. Damping (>=0)   DampMin         ....    0.0000
   Turn off err/grad.   DampErr         ....    0.1000
 Fernandez-Rico         CNVRico         .... off

SCF Procedure:
 Maximum # iterations   MaxIter         ....   125
 SCF integral mode      SCFMode         .... Direct
   Integral package                     .... LIBINT
 Reset frequeny         DirectResetFreq ....    20
 Integral Threshold     Thresh          ....  2.500e-11 Eh
 Primitive CutOff       TCut            ....  2.500e-12 Eh

Convergence Tolerance:
 Convergence Check Mode ConvCheckMode   .... Total+1el-Energy
 Energy Change          TolE            ....  1.000e-08 Eh
 1-El. energy change                    ....  1.000e-05 Eh
 Orbital Gradient       TolG            ....  1.000e-05
 Orbital Rotation angle TolX            ....  1.000e-05
 DIIS Error             TolErr          ....  5.000e-07


Diagonalization of the overlap matrix:
Smallest eigenvalue                        ... 1.897e-04
Time for diagonalization                   ...    0.284 sec
Threshold for overlap eigenvalues          ... 1.000e-08
Number of eigenvalues below threshold      ... 0
Time for construction of square roots      ...    0.074 sec
Total time needed                          ...    0.359 sec

-------------------
DFT GRID GENERATION
-------------------

General Integration Accuracy     IntAcc      ...  4.340
Radial Grid Type                 RadialGrid  ... Gauss-Chebyshev
Angular Grid (max. acc.)         AngularGrid ... Lebedev-194
Angular grid pruning method      GridPruning ... 3 (G Style)
Weight generation scheme         WeightScheme... Becke
Basis function cutoff            BFCut       ...    1.0000e-11
Integration weight cutoff        WCut        ...    1.0000e-14
Grids for H and He will be reduced by one unit

# of grid points (after initial pruning)     ...  44482 (   0.0 sec)
# of grid points (after weights+screening)   ...  40428 (   0.4 sec)
nearest neighbour list constructed           ...    0.0 sec
Grid point re-assignment to atoms done       ...    0.0 sec
Grid point division into batches done        ...    0.1 sec
Reduced shell lists constructed in    0.3 sec

Total number of grid points                  ...    40428
Total number of batches                      ...      642
Average number of points per batch           ...       62
Average number of grid points per atom       ...     1925
Average number of shells per batch           ...   102.07 (76.75%)
Average number of basis functions per batch  ...   236.56 (78.59%)
Average number of large shells per batch     ...    82.49 (80.81%)
Average number of large basis fcns per batch ...   190.05 (80.34%)
Maximum spatial batch extension              ...   1.89,  2.02,  2.05 au
Average spatial batch extension              ...   0.14,  0.14,  0.14 au

Time for grid setup =    1.261 sec

Loading Hartree-Fock densities                     ... done
Calculating cut-offs                               ... done
Setting up the integral package                    ... done
Initializing the effective Hamiltonian             ... done
Starting the Coulomb interaction                   ... done (   0.1 sec)
Reading the grid                                   ... done
Mapping shells                                     ... done
Starting the XC term evaluation                    ... done (   0.6 sec)
  promolecular density results
     # of electrons  =     58.993018600
     EX              =    -44.456582904
     EC              =     -1.941865898
     EX+EC           =    -46.398448803
Transforming the Hamiltonian                       ... done (   0.0 sec)
Diagonalizing the Hamiltonian                      ... done (   0.3 sec)
Back transforming the eigenvectors                 ... done (   0.0 sec)
Now organizing SCF variables                       ... done
--------------
SCF ITERATIONS
--------------
ITER       Energy         Delta-E        Max-DP      RMS-DP      [F,P]     Damp
               ***  Starting incremental Fock matrix formation  ***
  0   -328.2732725416   0.000000000000 0.03449967  0.00070406  0.1710231 0.7000
  1   -328.3405232485  -0.067250706937 0.02068564  0.00053051  0.0916986 0.7000
                               ***Turning on DIIS***
  2   -328.3708621864  -0.030338937805 0.03831091  0.00096574  0.0372442 0.0000
  3   -328.4165047678  -0.045642581477 0.01650264  0.00035944  0.0486132 0.0000
  4   -328.4263730281  -0.009868260224 0.00442704  0.00009755  0.0053531 0.0000
  5   -328.4266541821  -0.000281153998 0.00212736  0.00004242  0.0057279 0.0000
                      *** Initiating the SOSCF procedure ***
                           *** Shutting down DIIS ***
                      *** Re-Reading the Fockian *** 
                      *** Removing any level shift *** 
ITER      Energy       Delta-E        Grad      Rot      Max-DP    RMS-DP
  6   -328.42669699  -0.0000428086  0.000109  0.000109  0.001275  0.000023
               *** Restarting incremental Fock matrix formation ***
  7   -328.42669971  -0.0000027152  0.000044  0.000066  0.000259  0.000005
  8   -328.42669966   0.0000000413  0.000045  0.000036  0.000098  0.000002
  9   -328.42669992  -0.0000002603  0.000005  0.000006  0.000014  0.000000
 10   -328.42669992   0.0000000002  0.000005  0.000003  0.000007  0.000000
                  ***Gradient check signals convergence***
              ***Rediagonalizing the Fockian in SOSCF/NRSCF***

               *****************************************************
               *                     SUCCESS                       *
               *           SCF CONVERGED AFTER  11 CYCLES          *
               *****************************************************

Setting up the final grid:

General Integration Accuracy     IntAcc      ...  5.010
Radial Grid Type                 RadialGrid  ... Gauss-Chebyshev
Angular Grid (max. acc.)         AngularGrid ... Lebedev-434
Angular grid pruning method      GridPruning ... 3 (G Style)
Weight generation scheme         WeightScheme... Becke
Basis function cutoff            BFCut       ...    1.0000e-11
Integration weight cutoff        WCut        ...    1.0000e-14
Grids for H and He will be reduced by one unit

# of grid points (after initial pruning)     ... 168610 (   0.0 sec)
# of grid points (after weights+screening)   ... 151199 (   3.5 sec)
nearest neighbour list constructed           ...    0.0 sec
Grid point re-assignment to atoms done       ...    0.0 sec
Grid point division into batches done        ...    1.2 sec
Reduced shell lists constructed in    1.6 sec

Total number of grid points                  ...   151199
Total number of batches                      ...     2371
Average number of points per batch           ...       63
Average number of grid points per atom       ...     7200
Average number of shells per batch           ...   101.30 (76.16%)
Average number of basis functions per batch  ...   234.67 (77.96%)
Average number of large shells per batch     ...    81.58 (80.53%)
Average number of large basis fcns per batch ...   188.43 (80.30%)
Maximum spatial batch extension              ...   2.35,  2.31,  2.24 au
Average spatial batch extension              ...   0.10,  0.10,  0.10 au

Final grid set up in    6.3 sec
Final integration                            ... done (   1.3 sec)
Change in XC energy                          ...     0.000220661
Integrated number of electrons               ...    58.000067012
Previous integrated no of electrons          ...    57.999377573
Total Energy       :         -328.42647927 Eh           -8936.93885 eV
  Last Energy change         ...   -1.7625e-09  Tolerance :   1.0000e-08
  Last MAX-Density change    ...    4.7342e-06  Tolerance :   1.0000e-07
             **** THE GBW FILE WAS UPDATED (5721_+.gbw) ****
             **** DENSITY FILE WAS UPDATED (5721_+.scfp.tmp) ****
             **** ENERGY FILE WAS UPDATED (5721_+.en.tmp) ****
Total SCF time: 0 days 0 hours 2 min 24 sec 
           ************************************************************
           *              Shut down parallel processing               *
           ************************************************************

-------------------------   --------------------
FINAL SINGLE POINT ENERGY      -328.426479265198
-------------------------   --------------------



           ************************************************************
           *        Program running with 8 parallel MPI-processes     *
           *              working on a common directory               *
           ************************************************************
------------------------------------------------------------------------------
                         ORCA SCF GRADIENT CALCULATION
------------------------------------------------------------------------------

Gradient of the Kohn-Sham DFT energy:
Kohn-Sham wavefunction type      ... RKS
Hartree-Fock exchange scaling    ...    0.250
Number of operators              ...    1
Number of atoms                  ...   21
Basis set dimensions             ...  301
Integral neglect threshold       ... 2.5e-11
Integral primitive cutoff        ... 2.5e-12

Nuclear repulsion gradient       ... done
One Electron Gradient            ... done
Pre-screening matrix             ... done
Starting the two electron gradient:
Two electron gradient done
Exchange-correlation gradient    ... done

------------------
CARTESIAN GRADIENT
------------------

   1   C   :   -0.000089799    0.000015528   -0.000163393
   2   N   :   -0.000190083    0.000014478   -0.000050122
   3   C   :    0.000208908   -0.000168612    0.000025007
   4   C   :    0.000229336   -0.000138028    0.000047267
   5   C   :   -0.000080177    0.000342500    0.000122710
   6   O   :   -0.000146415    0.000060216   -0.000159497
   7   C   :   -0.000008229   -0.000053174   -0.000156152
   8   H   :   -0.000002953    0.000006409   -0.000004436
   9   H   :   -0.000043152    0.000022180   -0.000009627
  10   H   :    0.000061802   -0.000013714    0.000148572
  11   H   :    0.000086876    0.000166678    0.000004991
  12   H   :   -0.000076077   -0.000056301    0.000073020
  13   H   :    0.000011126    0.000010994    0.000015505
  14   H   :    0.000046207    0.000023228   -0.000062482
  15   H   :   -0.000109064    0.000026423    0.000003170
  16   H   :    0.000096218   -0.000287474   -0.000129599
  17   H   :   -0.000023395   -0.000016466   -0.000110520
  18   H   :    0.000040684    0.000027593    0.000189888
  19   H   :    0.000102936   -0.000000272    0.000111049
  20   H   :   -0.000074736   -0.000106773    0.000014290
  21   H   :   -0.000040012    0.000124587    0.000090362

Norm of the cartesian gradient     ...    0.000872080
RMS gradient                       ...    0.000109872
MAX gradient                       ...    0.000342500

-------
TIMINGS
-------

Total SCF gradient time            ...       55.609 sec

One electron gradient       ....       0.305 sec  (  0.5%)
Prescreening matrices       ....       1.096 sec  (  2.0%)
Two electron gradient       ....      34.121 sec  ( 61.4%)
XC gradient                 ....       5.288 sec  (  9.5%)
           ************************************************************
           *              Shut down parallel processing               *
           ************************************************************
------------------------------------------------------------------------------
                         ORCA GEOMETRY RELAXATION STEP
------------------------------------------------------------------------------

Reading the OPT-File                    .... done
Getting information on internals        .... done
Copying old internal coords+grads       .... done
Making the new internal coordinates     .... (new redundants).... done
Validating the new internal coordinates .... (new redundants).... done
Calculating the B-matrix                .... done
Calculating the G,G- and P matrices     .... done
Transforming gradient to internals      .... done
Projecting the internal gradient        .... done
Number of atoms                         ....  21
Number of internal coordinates          ....  99
Current Energy                          ....  -328.426479265 Eh
Current gradient norm                   ....     0.000872080 Eh/bohr
Maximum allowed component of the step   ....  0.300
Current trust radius                    ....  0.300
Evaluating the initial hessian          ....  (Almloef) done
Projecting the Hessian                  .... done
Forming the augmented Hessian           .... done
Diagonalizing the augmented Hessian     .... done
Last element of RFO vector              ....  0.999961263
Lowest eigenvalues of augmented Hessian:
 -0.000003527  0.011635698  0.012148372  0.013374169  0.014476163
Length of the computed step             ....  0.008802200
The final length of the internal step   ....  0.008802200
Converting the step to cartesian space:
 Initial RMS(Int)=    0.0008846544
Transforming coordinates:
 Iter   0:  RMS(Cart)=    0.0027758061 RMS(Int)=    0.6314188667
 Iter   1:  RMS(Cart)=    0.0000038273 RMS(Int)=    0.0000026307
 Iter   2:  RMS(Cart)=    0.0000000116 RMS(Int)=    0.0000000047
done
Storing new coordinates                 .... done

                                .--------------------.
          ----------------------|Geometry convergence|---------------------
          Item                value                 Tolerance   Converged
          -----------------------------------------------------------------
          RMS gradient        0.00008789            0.00003000      NO
          MAX gradient        0.00029612            0.00010000      NO
          RMS step            0.00088465            0.00060000      NO
          MAX step            0.00303608            0.00100000      NO
          ....................................................
          Max(Bonds)      0.0004      Max(Angles)    0.06
          Max(Dihed)        0.17      Max(Improp)    0.00
          -----------------------------------------------------------------

The optimization has not yet converged - more geometry cycles are needed


    ---------------------------------------------------------------------------
                         Redundant Internal Coordinates
                            (Angstroem and degrees)

        Definition                    Value    dE/dq     Step     New-Value
    ----------------------------------------------------------------------------
     1. B(N   1,C   0)                1.4828 -0.000021  0.0000    1.4828   
     2. B(C   2,N   1)                1.4938 -0.000288  0.0004    1.4942   
     3. B(C   3,C   2)                1.5238  0.000031 -0.0000    1.5237   
     4. B(C   4,C   3)                1.5176 -0.000090  0.0001    1.5178   
     5. B(O   5,C   3)                1.4123 -0.000191  0.0002    1.4125   
     6. B(C   6,O   5)                1.4193  0.000067 -0.0001    1.4192   
     7. B(H   7,C   0)                1.0886 -0.000004  0.0000    1.0886   
     8. B(H   8,C   0)                1.0881  0.000006 -0.0000    1.0881   
     9. B(H   9,C   0)                1.0882 -0.000162  0.0002    1.0885   
    10. B(H  10,N   1)                1.0204 -0.000169  0.0002    1.0206   
    11. B(H  11,N   1)                1.0306  0.000051 -0.0001    1.0306   
    12. B(H  12,C   2)                1.0901  0.000016 -0.0000    1.0901   
    13. B(H  13,C   2)                1.0897  0.000030 -0.0000    1.0897   
    14. B(H  14,C   3)                1.0983  0.000096 -0.0001    1.0981   
    15. B(H  15,C   4)                1.0949  0.000296 -0.0004    1.0945   
    16. B(H  16,C   4)                1.0921  0.000096 -0.0001    1.0920   
    17. B(H  17,C   4)                1.0901  0.000120 -0.0002    1.0899   
    18. B(H  18,C   6)                1.0884  0.000149 -0.0002    1.0882   
    19. B(H  19,C   6)                1.0930  0.000129 -0.0002    1.0928   
    20. B(H  20,C   6)                1.0945  0.000140 -0.0002    1.0943   
    21. A(N   1,C   0,H   8)          108.61 -0.000026    0.01    108.62   
    22. A(H   7,C   0,H   8)          109.98  0.000019   -0.01    109.97   
    23. A(H   8,C   0,H   9)          109.94 -0.000007    0.01    109.94   
    24. A(N   1,C   0,H   7)          109.15  0.000016   -0.00    109.14   
    25. A(H   7,C   0,H   9)          110.08 -0.000004   -0.00    110.08   
    26. A(N   1,C   0,H   9)          109.06  0.000002    0.00    109.06   
    27. A(C   2,N   1,H  10)          109.44  0.000115   -0.02    109.42   
    28. A(C   0,N   1,H  11)          111.73  0.000116   -0.02    111.71   
    29. A(C   0,N   1,H  10)          109.80 -0.000012    0.01    109.81   
    30. A(C   0,N   1,C   2)          115.10 -0.000160    0.03    115.13   
    31. A(H  10,N   1,H  11)          106.03 -0.000029   -0.00    106.03   
    32. A(C   2,N   1,H  11)          104.25 -0.000018    0.01    104.26   
    33. A(H  12,C   2,H  13)          109.54  0.000017    0.01    109.55   
    34. A(C   3,C   2,H  13)          113.12  0.000044   -0.03    113.09   
    35. A(N   1,C   2,H  13)          108.92 -0.000070    0.00    108.92   
    36. A(C   3,C   2,H  12)          110.41 -0.000079    0.03    110.44   
    37. A(N   1,C   2,H  12)          106.22 -0.000060    0.03    106.25   
    38. A(N   1,C   2,C   3)          108.37  0.000142   -0.03    108.34   
    39. A(C   2,C   3,C   4)          113.70  0.000253   -0.06    113.65   
    40. A(O   5,C   3,H  14)          110.02  0.000063    0.00    110.02   
    41. A(C   4,C   3,H  14)          109.27 -0.000099    0.03    109.30   
    42. A(C   2,C   3,H  14)          106.90 -0.000061    0.01    106.91   
    43. A(C   4,C   3,O   5)          113.25 -0.000095    0.02    113.27   
    44. A(C   2,C   3,O   5)          103.40 -0.000055   -0.00    103.39   
    45. A(H  15,C   4,H  17)          107.07 -0.000010    0.01    107.08   
    46. A(C   3,C   4,H  17)          110.71 -0.000230    0.04    110.75   
    47. A(H  15,C   4,H  16)          108.66 -0.000113    0.02    108.68   
    48. A(C   3,C   4,H  16)          110.56  0.000022   -0.01    110.56   
    49. A(C   3,C   4,H  15)          112.34  0.000221   -0.04    112.31   
    50. A(H  16,C   4,H  17)          107.30  0.000105   -0.02    107.28   
    51. A(C   3,O   5,C   6)          115.80  0.000021   -0.00    115.80   
    52. A(H  19,C   6,H  20)          109.64  0.000001   -0.00    109.63   
    53. A(H  18,C   6,H  20)          109.22 -0.000062    0.01    109.23   
    54. A(O   5,C   6,H  20)          110.54  0.000044   -0.01    110.53   
    55. A(H  18,C   6,H  19)          109.02 -0.000011    0.00    109.03   
    56. A(O   5,C   6,H  19)          111.58  0.000008   -0.00    111.58   
    57. A(O   5,C   6,H  18)          106.77  0.000017   -0.00    106.77   
    58. D(H  10,N   1,C   0,H   9)     64.27 -0.000001    0.03     64.31   
    59. D(H  11,N   1,C   0,H   9)   -178.37  0.000027    0.02   -178.35   
    60. D(H  11,N   1,C   0,H   8)    -58.57  0.000004    0.03    -58.54   
    61. D(H  10,N   1,C   0,H   7)    -56.02 -0.000006    0.04    -55.98   
    62. D(C   2,N   1,C   0,H   9)    -59.73 -0.000024    0.03    -59.70   
    63. D(C   2,N   1,C   0,H   8)     60.07 -0.000047    0.05     60.12   
    64. D(C   2,N   1,C   0,H   7)    179.97 -0.000030    0.04    180.01   
    65. D(H  10,N   1,C   0,H   8)   -175.92 -0.000023    0.04   -175.88   
    66. D(H  11,N   1,C   0,H   7)     61.33  0.000021    0.02     61.36   
    67. D(H  12,C   2,N   1,H  10)   -170.41  0.000034   -0.08   -170.49   
    68. D(C   3,C   2,N   1,H  11)    -42.12  0.000079   -0.11    -42.22   
    69. D(C   3,C   2,N   1,H  10)     70.95  0.000086   -0.11     70.84   
    70. D(C   3,C   2,N   1,C   0)   -164.85  0.000043   -0.10   -164.95   
    71. D(H  12,C   2,N   1,H  11)     76.52  0.000027   -0.08     76.45   
    72. D(H  13,C   2,N   1,H  11)   -165.57 -0.000021   -0.05   -165.62   
    73. D(H  13,C   2,N   1,H  10)    -52.50 -0.000014   -0.06    -52.56   
    74. D(H  13,C   2,N   1,C   0)     71.69 -0.000057   -0.05     71.65   
    75. D(H  12,C   2,N   1,C   0)    -46.21 -0.000009   -0.07    -46.28   
    76. D(H  14,C   3,C   2,H  12)     46.73  0.000006    0.06     46.79   
    77. D(H  14,C   3,C   2,N   1)    162.68 -0.000028    0.09    162.77   
    78. D(O   5,C   3,C   2,H  13)    167.46 -0.000010    0.05    167.51   
    79. D(O   5,C   3,C   2,H  12)    -69.38 -0.000015    0.06    -69.32   
    80. D(O   5,C   3,C   2,N   1)     46.57 -0.000049    0.09     46.66   
    81. D(C   4,C   3,C   2,H  13)     44.24 -0.000000    0.06     44.31   
    82. D(C   4,C   3,C   2,H  12)    167.41 -0.000005    0.07    167.48   
    83. D(H  14,C   3,C   2,H  13)    -76.43  0.000011    0.05    -76.38   
    84. D(C   4,C   3,C   2,N   1)    -76.64 -0.000039    0.10    -76.54   
    85. D(H  16,C   4,C   3,C   2)    -60.45 -0.000012    0.04    -60.41   
    86. D(H  15,C   4,C   3,H  14)   -179.54  0.000030    0.03   -179.51   
    87. D(H  15,C   4,C   3,O   5)    -56.52 -0.000028    0.07    -56.45   
    88. D(H  15,C   4,C   3,C   2)     61.13  0.000013    0.03     61.16   
    89. D(H  17,C   4,C   3,H  14)    -59.89  0.000007    0.04    -59.85   
    90. D(H  17,C   4,C   3,O   5)     63.13 -0.000051    0.08     63.21   
    91. D(H  17,C   4,C   3,C   2)   -179.23 -0.000010    0.05   -179.18   
    92. D(H  16,C   4,C   3,H  14)     58.88  0.000006    0.04     58.92   
    93. D(H  16,C   4,C   3,O   5)   -178.10 -0.000052    0.08   -178.02   
    94. D(C   6,O   5,C   3,H  14)     48.47 -0.000028    0.02     48.49   
    95. D(C   6,O   5,C   3,C   4)    -74.13  0.000121   -0.03    -74.17   
    96. D(C   6,O   5,C   3,C   2)    162.36 -0.000098    0.03    162.39   
    97. D(H  20,C   6,O   5,C   3)    -56.53 -0.000084    0.17    -56.35   
    98. D(H  19,C   6,O   5,C   3)     65.76 -0.000046    0.16     65.92   
    99. D(H  18,C   6,O   5,C   3)   -175.21 -0.000044    0.16   -175.05   
    ----------------------------------------------------------------------------

         *************************************************************
         *                GEOMETRY OPTIMIZATION CYCLE   2            *
         *************************************************************
---------------------------------
CARTESIAN COORDINATES (ANGSTROEM)
---------------------------------
  C      2.081663    0.692706   -1.940838
  N      1.080970    0.000290   -1.093548
  C     -0.223654    0.712678   -0.941836
  C     -0.978769    0.086980    0.224395
  C     -1.615138   -1.249854   -0.109490
  O     -0.000210    0.001130    1.239347
  C     -0.492341   -0.180592    2.558065
  H      2.988778    0.092497   -1.984677
  H      2.299076    1.662997   -1.498997
  H      1.671495    0.823501   -2.940528
  H      0.914310   -0.940031   -1.453626
  H      1.418058   -0.120600   -0.127202
  H      0.020236    1.752447   -0.723413
  H     -0.768839    0.656077   -1.883628
  H     -1.762054    0.798964    0.516648
  H     -0.874521   -2.001444   -0.400114
  H     -2.337452   -1.138713   -0.920869
  H     -2.153439   -1.646950    0.751043
  H      0.368015   -0.137425    3.222955
  H     -0.983681   -1.149876    2.673714
  H     -1.191216    0.619535    2.820525

----------------------------
CARTESIAN COORDINATES (A.U.)
----------------------------
  NO LB      ZA    FRAG    MASS        X           Y           Z
   0 C     6.0000    0    12.011          3.933773247528668          1.309024599500641         -3.667651736521416
   1 N     7.0000    0    14.007          2.042737891466767          0.000548782836165         -2.066507056854427
   2 C     6.0000    0    12.011         -0.422644878748298          1.346766791027558         -1.779812043568755
   3 C     6.0000    0    12.011         -1.849605640111726          0.164367902631693          0.424045043396618
   4 C     6.0000    0    12.011         -3.052167969636421         -2.361880862843978         -0.206906948342424
   5 O     8.0000    0    15.999         -0.000397374391388          0.002135091623696          2.342027039037258
   6 C     6.0000    0    12.011         -0.930390283125713         -0.341269189887579          4.834043047452903
   7 H     1.0000    0     1.008          5.647971662425902          0.174793674506828         -3.750495543359663
   8 H     1.0000    0     1.008          4.344623860267777          3.142608737918419         -2.832694507436702
   9 H     1.0000    0     1.008          3.158668693828830          1.556191963381675         -5.556791990258337
  10 H     1.0000    0     1.008          1.727796281245992         -1.776400276315570         -2.746954508835354
  11 H     1.0000    0     1.008          2.679741231147533         -0.227900449159249         -0.240376198430367
  12 H     1.0000    0     1.008          0.038239731632142          3.311645116480703         -1.367052052597188
  13 H     1.0000    0     1.008         -1.452894417044642          1.239806018343965         -3.559541735622158
  14 H     1.0000    0     1.008         -3.329799874912045          1.509823648005189          0.976322309376256
  15 H     1.0000    0     1.008         -1.652605693592753         -3.782181415844001         -0.756106117133215
  16 H     1.0000    0     1.008         -4.417143751357783         -2.151854985149168         -1.740189456784573
  17 H     1.0000    0     1.008         -4.069409129319902         -3.112283917546028          1.419266390535171
  18 H     1.0000    0     1.008          0.695447637732355         -0.259695089021787          6.090501396117839
  19 H     1.0000    0     1.008         -1.858888010278226         -2.172951409232820          5.052586550141235
  20 H     1.0000    0     1.008         -2.251071567672324          1.170750863727386          5.330020087330425

--------------------------------
INTERNAL COORDINATES (ANGSTROEM)
--------------------------------
 C      0   0   0   0.000000     0.000     0.000
 N      1   0   0   1.482810     0.000     0.000
 C      2   1   0   1.494175   115.127     0.000
 C      3   2   1   1.523743   108.339   195.046
 C      4   3   2   1.517751   113.647   283.459
 O      4   3   2   1.412472   103.391    46.657
 C      6   4   3   1.419237   115.799   162.387
 H      1   2   3   1.088591   109.142   180.010
 H      1   2   3   1.088097   108.616    60.117
 H      1   2   3   1.088451   109.063   300.302
 H      2   1   3   1.020605   109.806   124.006
 H      2   1   3   1.030567   111.706   241.346
 H      3   2   1   1.090096   106.246   313.715
 H      3   2   1   1.089680   108.925    71.646
 H      4   3   2   1.098121   106.914   162.774
 H      5   4   3   1.094469   112.306    61.158
 H      5   4   3   1.091982   110.558   299.591
 H      5   4   3   1.089941   110.750   180.818
 H      7   6   4   1.088188   106.768   184.952
 H      7   6   4   1.092841   111.580    65.919
 H      7   6   4   1.094309   110.529   303.648

---------------------------
INTERNAL COORDINATES (A.U.)
---------------------------
 C      0   0   0   0.000000     0.000     0.000
 N      1   0   0   2.802104     0.000     0.000
 C      2   1   0   2.823581   115.127     0.000
 C      3   2   1   2.879457   108.339   195.046
 C      4   3   2   2.868133   113.647   283.459
 O      4   3   2   2.669184   103.391    46.657
 C      6   4   3   2.681969   115.799   162.387
 H      1   2   3   2.057139   109.142   180.010
 H      1   2   3   2.056206   108.616    60.117
 H      1   2   3   2.056874   109.063   300.302
 H      2   1   3   1.928664   109.806   124.006
 H      2   1   3   1.947490   111.706   241.346
 H      3   2   1   2.059984   106.246   313.715
 H      3   2   1   2.059197   108.925    71.646
 H      4   3   2   2.075147   106.914   162.774
 H      5   4   3   2.068248   112.306    61.158
 H      5   4   3   2.063547   110.558   299.591
 H      5   4   3   2.059690   110.750   180.818
 H      7   6   4   2.056378   106.768   184.952
 H      7   6   4   2.065170   111.580    65.919
 H      7   6   4   2.067945   110.529   303.648



           ************************************************************
           *        Program running with 8 parallel MPI-processes     *
           *              working on a common directory               *
           ************************************************************
           ************************************************************
           *              Shut down parallel processing               *
           ************************************************************


           ************************************************************
           *        Program running with 8 parallel MPI-processes     *
           *              working on a common directory               *
           ************************************************************

Diagonalization of the overlap matrix:
Smallest eigenvalue                        ... 1.896e-04
Time for diagonalization                   ...    0.400 sec
Threshold for overlap eigenvalues          ... 1.000e-08
Number of eigenvalues below threshold      ... 0
Time for construction of square roots      ...    0.065 sec
Total time needed                          ...    0.466 sec

-------------------
DFT GRID GENERATION
-------------------

General Integration Accuracy     IntAcc      ...  4.340
Radial Grid Type                 RadialGrid  ... Gauss-Chebyshev
Angular Grid (max. acc.)         AngularGrid ... Lebedev-194
Angular grid pruning method      GridPruning ... 3 (G Style)
Weight generation scheme         WeightScheme... Becke
Basis function cutoff            BFCut       ...    1.0000e-11
Integration weight cutoff        WCut        ...    1.0000e-14
Grids for H and He will be reduced by one unit

# of grid points (after initial pruning)     ...  44482 (   0.0 sec)
# of grid points (after weights+screening)   ...  40427 (   0.2 sec)
nearest neighbour list constructed           ...    0.0 sec
Grid point re-assignment to atoms done       ...    0.0 sec
Grid point division into batches done        ...    0.1 sec
Reduced shell lists constructed in    0.1 sec

Total number of grid points                  ...    40427
Total number of batches                      ...      642
Average number of points per batch           ...       62
Average number of grid points per atom       ...     1925
Average number of shells per batch           ...   102.07 (76.75%)
Average number of basis functions per batch  ...   236.59 (78.60%)
Average number of large shells per batch     ...    82.46 (80.79%)
Average number of large basis fcns per batch ...   190.07 (80.34%)
Maximum spatial batch extension              ...   1.89,  2.03,  2.05 au
Average spatial batch extension              ...   0.14,  0.14,  0.14 au

Time for grid setup =    0.726 sec

--------------
SCF ITERATIONS
--------------
ITER       Energy         Delta-E        Max-DP      RMS-DP      [F,P]     Damp
               ***  Starting incremental Fock matrix formation  ***
                      *** Initiating the SOSCF procedure ***
                      *** Re-Reading the Fockian *** 
                      *** Removing any level shift *** 
ITER      Energy       Delta-E        Grad      Rot      Max-DP    RMS-DP
  0   -328.42669892 -328.4266989180  0.000211  0.000211  0.000403  0.000009
               *** Restarting incremental Fock matrix formation ***
  1   -328.42670492  -0.0000060048  0.000061  0.000139  0.000180  0.000004
  2   -328.42670549  -0.0000005645  0.000015  0.000039  0.000060  0.000001
  3   -328.42670548   0.0000000051  0.000019  0.000012  0.000029  0.000001
  4   -328.42670551  -0.0000000315  0.000003  0.000003  0.000010  0.000000
  5   -328.42670551   0.0000000004  0.000004  0.000002  0.000006  0.000000
                  ***Gradient check signals convergence***
              ***Rediagonalizing the Fockian in SOSCF/NRSCF***

               *****************************************************
               *                     SUCCESS                       *
               *           SCF CONVERGED AFTER   6 CYCLES          *
               *****************************************************

Setting up the final grid:

General Integration Accuracy     IntAcc      ...  5.010
Radial Grid Type                 RadialGrid  ... Gauss-Chebyshev
Angular Grid (max. acc.)         AngularGrid ... Lebedev-434
Angular grid pruning method      GridPruning ... 3 (G Style)
Weight generation scheme         WeightScheme... Becke
Basis function cutoff            BFCut       ...    1.0000e-11
Integration weight cutoff        WCut        ...    1.0000e-14
Grids for H and He will be reduced by one unit

# of grid points (after initial pruning)     ... 168610 (   0.0 sec)
# of grid points (after weights+screening)   ... 151198 (   4.6 sec)
nearest neighbour list constructed           ...    0.0 sec
Grid point re-assignment to atoms done       ...    0.1 sec
Grid point division into batches done        ...    1.3 sec
Reduced shell lists constructed in    1.8 sec

Total number of grid points                  ...   151198
Total number of batches                      ...     2372
Average number of points per batch           ...       63
Average number of grid points per atom       ...     7200
Average number of shells per batch           ...   101.32 (76.18%)
Average number of basis functions per batch  ...   234.72 (77.98%)
Average number of large shells per batch     ...    81.60 (80.54%)
Average number of large basis fcns per batch ...   188.44 (80.28%)
Maximum spatial batch extension              ...   2.35,  2.32,  2.24 au
Average spatial batch extension              ...   0.10,  0.10,  0.10 au

Final grid set up in    8.1 sec
Final integration                            ... done (   1.5 sec)
Change in XC energy                          ...     0.000223723
Integrated number of electrons               ...    58.000067647
Previous integrated no of electrons          ...    57.999413557
Total Energy       :         -328.42648179 Eh           -8936.93891 eV
  Last Energy change         ...   -6.8889e-10  Tolerance :   1.0000e-08
  Last MAX-Density change    ...    2.0721e-06  Tolerance :   1.0000e-07
             **** THE GBW FILE WAS UPDATED (5721_+.gbw) ****
             **** DENSITY FILE WAS UPDATED (5721_+.scfp.tmp) ****
             **** ENERGY FILE WAS UPDATED (5721_+.en.tmp) ****
Total SCF time: 0 days 0 hours 1 min 15 sec 
           ************************************************************
           *              Shut down parallel processing               *
           ************************************************************

-------------------------   --------------------
FINAL SINGLE POINT ENERGY      -328.426481791048
-------------------------   --------------------



           ************************************************************
           *        Program running with 8 parallel MPI-processes     *
           *              working on a common directory               *
           ************************************************************
------------------------------------------------------------------------------
                         ORCA SCF GRADIENT CALCULATION
------------------------------------------------------------------------------

Gradient of the Kohn-Sham DFT energy:
Kohn-Sham wavefunction type      ... RKS
Hartree-Fock exchange scaling    ...    0.250
Number of operators              ...    1
Number of atoms                  ...   21
Basis set dimensions             ...  301
Integral neglect threshold       ... 2.5e-11
Integral primitive cutoff        ... 2.5e-12

Nuclear repulsion gradient       ... done
One Electron Gradient            ... done
Pre-screening matrix             ... done
Starting the two electron gradient:
Two electron gradient done
Exchange-correlation gradient    ... done

------------------
CARTESIAN GRADIENT
------------------

   1   C   :    0.000006715   -0.000000141   -0.000012892
   2   N   :   -0.000064520    0.000031607    0.000017875
   3   C   :    0.000072179   -0.000045159    0.000021880
   4   C   :    0.000058119   -0.000076550    0.000033736
   5   C   :   -0.000014688    0.000078252    0.000010314
   6   O   :   -0.000051054    0.000057860   -0.000003878
   7   C   :    0.000004418   -0.000038534   -0.000037875
   8   H   :    0.000002249    0.000009110   -0.000000709
   9   H   :   -0.000024468    0.000010191   -0.000006910
  10   H   :   -0.000003012   -0.000001056    0.000002426
  11   H   :    0.000048897   -0.000003775   -0.000049343
  12   H   :   -0.000035978   -0.000035518    0.000042893
  13   H   :   -0.000030266    0.000016443    0.000004519
  14   H   :    0.000020439    0.000014899   -0.000012695
  15   H   :   -0.000040705   -0.000004398   -0.000027652
  16   H   :   -0.000047906   -0.000050408   -0.000051915
  17   H   :    0.000022138   -0.000026871   -0.000021664
  18   H   :    0.000056517    0.000042119    0.000053241
  19   H   :   -0.000003040   -0.000015380    0.000010775
  20   H   :   -0.000004720    0.000014975    0.000002525
  21   H   :    0.000028687    0.000022333    0.000025349

Norm of the cartesian gradient     ...    0.000270709
RMS gradient                       ...    0.000034106
MAX gradient                       ...    0.000078252

-------
TIMINGS
-------

Total SCF gradient time            ...       52.203 sec

One electron gradient       ....       0.324 sec  (  0.6%)
Prescreening matrices       ....       0.525 sec  (  1.0%)
Two electron gradient       ....      24.519 sec  ( 47.0%)
XC gradient                 ....       3.525 sec  (  6.8%)
           ************************************************************
           *              Shut down parallel processing               *
           ************************************************************
------------------------------------------------------------------------------
                         ORCA GEOMETRY RELAXATION STEP
------------------------------------------------------------------------------

Reading the OPT-File                    .... done
Getting information on internals        .... done
Copying old internal coords+grads       .... done
Making the new internal coordinates     .... (new redundants).... done
Validating the new internal coordinates .... (new redundants).... done
Calculating the B-matrix                .... done
Calculating the G,G- and P matrices     .... done
Transforming gradient to internals      .... done
Projecting the internal gradient        .... done
Number of atoms                         ....  21
Number of internal coordinates          ....  99
Current Energy                          ....  -328.426481791 Eh
Current gradient norm                   ....     0.000270709 Eh/bohr
Maximum allowed component of the step   ....  0.300
Current trust radius                    ....  0.300
Updating the Hessian (BFGS)             .... done
Forming the augmented Hessian           .... done
Diagonalizing the augmented Hessian     .... done
Last element of RFO vector              ....  0.999912543
Lowest eigenvalues of augmented Hessian:
 -0.000002112  0.008851250  0.011900361  0.012694473  0.014343154
Length of the computed step             ....  0.013226340
The final length of the internal step   ....  0.013226340
Converting the step to cartesian space:
 Initial RMS(Int)=    0.0013292972
Transforming coordinates:
 Iter   0:  RMS(Cart)=    0.0039668399 RMS(Int)=    0.0013292815
 Iter   1:  RMS(Cart)=    0.0000088416 RMS(Int)=    0.0000063317
 Iter   2:  RMS(Cart)=    0.0000000462 RMS(Int)=    0.0000000190
done
Storing new coordinates                 .... done

                                .--------------------.
          ----------------------|Geometry convergence|---------------------
          Item                value                 Tolerance   Converged
          -----------------------------------------------------------------
          Energy change      -0.00000253            0.00000100      NO
          RMS gradient        0.00003407            0.00003000      NO
          MAX gradient        0.00013173            0.00010000      NO
          RMS step            0.00132930            0.00060000      NO
          MAX step            0.00481124            0.00100000      NO
          ....................................................
          Max(Bonds)      0.0003      Max(Angles)    0.05
          Max(Dihed)        0.28      Max(Improp)    0.00
          -----------------------------------------------------------------

The optimization has not yet converged - more geometry cycles are needed


    ---------------------------------------------------------------------------
                         Redundant Internal Coordinates
                            (Angstroem and degrees)

        Definition                    Value    dE/dq     Step     New-Value
    ----------------------------------------------------------------------------
     1. B(N   1,C   0)                1.4828  0.000005 -0.0000    1.4828   
     2. B(C   2,N   1)                1.4942 -0.000058  0.0003    1.4944   
     3. B(C   3,C   2)                1.5237 -0.000013  0.0000    1.5238   
     4. B(C   4,C   3)                1.5178 -0.000045  0.0001    1.5179   
     5. B(O   5,C   3)                1.4125 -0.000025  0.0001    1.4126   
     6. B(C   6,O   5)                1.4192 -0.000006 -0.0000    1.4192   
     7. B(H   7,C   0)                1.0886 -0.000001  0.0000    1.0886   
     8. B(H   8,C   0)                1.0881 -0.000000 -0.0000    1.0881   
     9. B(H   9,C   0)                1.0885 -0.000002  0.0001    1.0885   
    10. B(H  10,N   1)                1.0206  0.000014  0.0000    1.0206   
    11. B(H  11,N   1)                1.0306  0.000033 -0.0001    1.0305   
    12. B(H  12,C   2)                1.0901  0.000010 -0.0000    1.0901   
    13. B(H  13,C   2)                1.0897 -0.000000 -0.0000    1.0897   
    14. B(H  14,C   3)                1.0981  0.000019 -0.0001    1.0980   
    15. B(H  15,C   4)                1.0945  0.000015 -0.0002    1.0943   
    16. B(H  16,C   4)                1.0920 -0.000001 -0.0000    1.0919   
    17. B(H  17,C   4)                1.0899 -0.000001 -0.0000    1.0899   
    18. B(H  18,C   6)                1.0882  0.000003 -0.0001    1.0881   
    19. B(H  19,C   6)                1.0928 -0.000012 -0.0000    1.0928   
    20. B(H  20,C   6)                1.0943  0.000005 -0.0001    1.0942   
    21. A(N   1,C   0,H   8)          108.62 -0.000013    0.01    108.62   
    22. A(H   7,C   0,H   8)          109.97  0.000007   -0.01    109.96   
    23. A(H   8,C   0,H   9)          109.94 -0.000000    0.01    109.95   
    24. A(N   1,C   0,H   7)          109.14  0.000015   -0.01    109.13   
    25. A(H   7,C   0,H   9)          110.08 -0.000000   -0.00    110.08   
    26. A(N   1,C   0,H   9)          109.06 -0.000008    0.00    109.07   
    27. A(C   2,N   1,H  10)          109.42  0.000074   -0.03    109.39   
    28. A(C   0,N   1,H  11)          111.71  0.000058   -0.03    111.68   
    29. A(C   0,N   1,H  10)          109.81 -0.000024    0.01    109.82   
    30. A(C   0,N   1,C   2)          115.13 -0.000074    0.03    115.16   
    31. A(H  10,N   1,H  11)          106.03 -0.000012   -0.00    106.03   
    32. A(C   2,N   1,H  11)          104.26 -0.000014    0.01    104.27   
    33. A(H  12,C   2,H  13)          109.55 -0.000003    0.01    109.57   
    34. A(C   3,C   2,H  13)          113.09  0.000032   -0.03    113.06   
    35. A(N   1,C   2,H  13)          108.92 -0.000021   -0.00    108.92   
    36. A(C   3,C   2,H  12)          110.44 -0.000047    0.04    110.47   
    37. A(N   1,C   2,H  12)          106.25  0.000005    0.01    106.26   
    38. A(N   1,C   2,C   3)          108.34  0.000033   -0.02    108.32   
    39. A(C   2,C   3,C   4)          113.65  0.000103   -0.05    113.59   
    40. A(O   5,C   3,H  14)          110.02  0.000033   -0.01    110.01   
    41. A(C   4,C   3,H  14)          109.30 -0.000054    0.03    109.34   
    42. A(C   2,C   3,H  14)          106.91 -0.000021    0.01    106.93   
    43. A(C   4,C   3,O   5)          113.27 -0.000003   -0.00    113.27   
    44. A(C   2,C   3,O   5)          103.39 -0.000058    0.01    103.40   
    45. A(H  15,C   4,H  17)          107.08  0.000003    0.00    107.08   
    46. A(C   3,C   4,H  17)          110.75 -0.000132    0.05    110.80   
    47. A(H  15,C   4,H  16)          108.68 -0.000074    0.03    108.70   
    48. A(C   3,C   4,H  16)          110.56  0.000028   -0.01    110.55   
    49. A(C   3,C   4,H  15)          112.31  0.000118   -0.05    112.26   
    50. A(H  16,C   4,H  17)          107.28  0.000054   -0.02    107.25   
    51. A(C   3,O   5,C   6)          115.80  0.000068   -0.02    115.78   
    52. A(H  19,C   6,H  20)          109.63  0.000006   -0.01    109.63   
    53. A(H  18,C   6,H  20)          109.23 -0.000026    0.02    109.25   
    54. A(O   5,C   6,H  20)          110.53  0.000010   -0.01    110.52   
    55. A(H  18,C   6,H  19)          109.03 -0.000012    0.00    109.03   
    56. A(O   5,C   6,H  19)          111.58  0.000013   -0.01    111.57   
    57. A(O   5,C   6,H  18)          106.77  0.000008   -0.00    106.77   
    58. D(H  10,N   1,C   0,H   9)     64.31  0.000005    0.05     64.36   
    59. D(H  11,N   1,C   0,H   9)   -178.35  0.000010    0.04   -178.31   
    60. D(H  11,N   1,C   0,H   8)    -58.54 -0.000003    0.05    -58.48   
    61. D(H  10,N   1,C   0,H   7)    -55.98  0.000002    0.05    -55.93   
    62. D(C   2,N   1,C   0,H   9)    -59.70 -0.000018    0.06    -59.64   
    63. D(C   2,N   1,C   0,H   8)     60.12 -0.000031    0.07     60.19   
    64. D(C   2,N   1,C   0,H   7)   -179.99 -0.000022    0.06   -179.93   
    65. D(H  10,N   1,C   0,H   8)   -175.88 -0.000008    0.06   -175.81   
    66. D(H  11,N   1,C   0,H   7)     61.36  0.000006    0.04     61.40   
    67. D(H  12,C   2,N   1,H  10)   -170.49  0.000019   -0.13   -170.62   
    68. D(C   3,C   2,N   1,H  11)    -42.22  0.000043   -0.16    -42.38   
    69. D(C   3,C   2,N   1,H  10)     70.84  0.000054   -0.16     70.67   
    70. D(C   3,C   2,N   1,C   0)   -164.95  0.000026   -0.15   -165.10   
    71. D(H  12,C   2,N   1,H  11)     76.45  0.000008   -0.12     76.33   
    72. D(H  13,C   2,N   1,H  11)   -165.62 -0.000003   -0.10   -165.72   
    73. D(H  13,C   2,N   1,H  10)    -52.56  0.000007   -0.11    -52.67   
    74. D(H  13,C   2,N   1,C   0)     71.65 -0.000021   -0.09     71.55   
    75. D(H  12,C   2,N   1,C   0)    -46.28 -0.000009   -0.11    -46.40   
    76. D(H  14,C   3,C   2,H  12)     46.79 -0.000007    0.08     46.88   
    77. D(H  14,C   3,C   2,N   1)    162.77 -0.000007    0.10    162.88   
    78. D(O   5,C   3,C   2,H  13)    167.51  0.000007    0.06    167.56   
    79. D(O   5,C   3,C   2,H  12)    -69.32 -0.000009    0.08    -69.24   
    80. D(O   5,C   3,C   2,N   1)     46.66 -0.000009    0.10     46.76   
    81. D(C   4,C   3,C   2,H  13)     44.31 -0.000008    0.08     44.39   
    82. D(C   4,C   3,C   2,H  12)    167.48 -0.000025    0.10    167.58   
    83. D(H  14,C   3,C   2,H  13)    -76.38  0.000010    0.06    -76.32   
    84. D(C   4,C   3,C   2,N   1)    -76.54 -0.000025    0.12    -76.42   
    85. D(H  16,C   4,C   3,C   2)    -60.41 -0.000014    0.08    -60.32   
    86. D(H  15,C   4,C   3,H  14)   -179.51 -0.000004    0.09   -179.42   
    87. D(H  15,C   4,C   3,O   5)    -56.45 -0.000003    0.10    -56.35   
    88. D(H  15,C   4,C   3,C   2)     61.16 -0.000008    0.08     61.24   
    89. D(H  17,C   4,C   3,H  14)    -59.85 -0.000012    0.10    -59.75   
    90. D(H  17,C   4,C   3,O   5)     63.21 -0.000011    0.11     63.32   
    91. D(H  17,C   4,C   3,C   2)   -179.18 -0.000015    0.09   -179.09   
    92. D(H  16,C   4,C   3,H  14)     58.92 -0.000011    0.09     59.02   
    93. D(H  16,C   4,C   3,O   5)   -178.02 -0.000010    0.11   -177.91   
    94. D(C   6,O   5,C   3,H  14)     48.49 -0.000015    0.07     48.56   
    95. D(C   6,O   5,C   3,C   4)    -74.17  0.000032    0.03    -74.14   
    96. D(C   6,O   5,C   3,C   2)    162.39 -0.000054    0.09    162.47   
    97. D(H  20,C   6,O   5,C   3)    -56.35 -0.000058    0.28    -56.08   
    98. D(H  19,C   6,O   5,C   3)     65.92 -0.000035    0.26     66.18   
    99. D(H  18,C   6,O   5,C   3)   -175.05 -0.000037    0.26   -174.79   
    ----------------------------------------------------------------------------

         *************************************************************
         *                GEOMETRY OPTIMIZATION CYCLE   3            *
         *************************************************************
---------------------------------
CARTESIAN COORDINATES (ANGSTROEM)
---------------------------------
  C      2.081108    0.690734   -1.942641
  N      1.080541    0.000897   -1.093107
  C     -0.223518    0.714654   -0.940509
  C     -0.978669    0.088324    0.225384
  C     -1.613312   -1.249086   -0.110110
  O     -0.000468    0.002693    1.240838
  C     -0.493453   -0.181454    2.558891
  H      2.986981    0.088707   -1.987365
  H      2.301251    1.660946   -1.501987
  H      1.669603    0.821409   -2.941873
  H      0.912038   -0.939796   -1.451432
  H      1.419086   -0.118936   -0.127239
  H      0.021288    1.754126   -0.721853
  H     -0.769287    0.658561   -1.881979
  H     -1.762462    0.799592    0.517674
  H     -0.870928   -1.999313   -0.399135
  H     -2.333851   -1.138183   -0.923046
  H     -2.153505   -1.647481    0.748577
  H      0.365644   -0.133151    3.224942
  H     -0.979377   -1.153502    2.674009
  H     -1.197422    0.614576    2.819888

----------------------------
CARTESIAN COORDINATES (A.U.)
----------------------------
  NO LB      ZA    FRAG    MASS        X           Y           Z
   0 C     6.0000    0    12.011          3.932724732325428          1.305298220715446         -3.671059199111165
   1 N     7.0000    0    14.007          2.041927232875344          0.001695604359511         -2.065673592924318
   2 C     6.0000    0    12.011         -0.422387172366006          1.350501078096155         -1.777304288103947
   3 C     6.0000    0    12.011         -1.849415962737690          0.166907866882146          0.425914111431579
   4 C     6.0000    0    12.011         -3.048717003181865         -2.360429881479790         -0.208076902040352
   5 O     8.0000    0    15.999         -0.000884671559564          0.005088089960008          2.344843614198477
   6 C     6.0000    0    12.011         -0.932491598813754         -0.342897907322844          4.835603255474738
   7 H     1.0000    0     1.008          5.644576026751038          0.167632214833149         -3.755576032691615
   8 H     1.0000    0     1.008          4.348735051865772          3.138733679721653         -2.838343447213970
   9 H     1.0000    0     1.008          3.155093317137426          1.552238598631344         -5.559335118609469
  10 H     1.0000    0     1.008          1.723501175617741         -1.775956611333981         -2.742809823021804
  11 H     1.0000    0     1.008          2.681684177104008         -0.224755853804529         -0.240447445971485
  12 H     1.0000    0     1.008          0.040228871922303          3.314817444157363         -1.364103629519129
  13 H     1.0000    0     1.008         -1.453741201554555          1.244499137471909         -3.556425333630040
  14 H     1.0000    0     1.008         -3.330571419175294          1.511009926396725          0.978262545188841
  15 H     1.0000    0     1.008         -1.645816026831249         -3.778153499676315         -0.754255750981509
  16 H     1.0000    0     1.008         -4.410340098167080         -2.150854022576502         -1.744304086792207
  17 H     1.0000    0     1.008         -4.069535272229275         -3.113288603108819          1.414605287551431
  18 H     1.0000    0     1.008          0.690966680437093         -0.251618226167604          6.094257295456622
  19 H     1.0000    0     1.008         -1.850754749186633         -2.179802833351319          5.053145287994550
  20 H     1.0000    0     1.008         -2.262800443148442          1.161381172580030          5.328815220957898

--------------------------------
INTERNAL COORDINATES (ANGSTROEM)
--------------------------------
 C      0   0   0   0.000000     0.000     0.000
 N      1   0   0   1.482807     0.000     0.000
 C      2   1   0   1.494425   115.159     0.000
 C      3   2   1   1.523762   108.316   194.896
 C      4   3   2   1.517891   113.594   283.584
 O      4   3   2   1.412571   103.401    46.758
 C      6   4   3   1.419228   115.782   162.472
 H      1   2   3   1.088596   109.134   180.071
 H      1   2   3   1.088095   108.622    60.188
 H      1   2   3   1.088521   109.068   300.359
 H      2   1   3   1.020634   109.819   123.997
 H      2   1   3   1.030473   111.680   241.328
 H      3   2   1   1.090065   106.258   313.603
 H      3   2   1   1.089668   108.920    71.553
 H      4   3   2   1.098029   106.928   162.878
 H      5   4   3   1.094308   112.259    61.237
 H      5   4   3   1.091945   110.546   299.675
 H      5   4   3   1.089895   110.804   180.908
 H      7   6   4   1.088120   106.766   185.213
 H      7   6   4   1.092818   111.574    66.179
 H      7   6   4   1.094238   110.524   303.924

---------------------------
INTERNAL COORDINATES (A.U.)
---------------------------
 C      0   0   0   0.000000     0.000     0.000
 N      1   0   0   2.802099     0.000     0.000
 C      2   1   0   2.824054   115.159     0.000
 C      3   2   1   2.879492   108.316   194.896
 C      4   3   2   2.868397   113.594   283.584
 O      4   3   2   2.669371   103.401    46.758
 C      6   4   3   2.681953   115.782   162.472
 H      1   2   3   2.057149   109.134   180.071
 H      1   2   3   2.056202   108.622    60.188
 H      1   2   3   2.057007   109.068   300.359
 H      2   1   3   1.928719   109.819   123.997
 H      2   1   3   1.947311   111.680   241.328
 H      3   2   1   2.059924   106.258   313.603
 H      3   2   1   2.059174   108.920    71.553
 H      4   3   2   2.074975   106.928   162.878
 H      5   4   3   2.067942   112.259    61.237
 H      5   4   3   2.063476   110.546   299.675
 H      5   4   3   2.059603   110.804   180.908
 H      7   6   4   2.056249   106.766   185.213
 H      7   6   4   2.065127   111.574    66.179
 H      7   6   4   2.067809   110.524   303.924



           ************************************************************
           *        Program running with 8 parallel MPI-processes     *
           *              working on a common directory               *
           ************************************************************
           ************************************************************
           *              Shut down parallel processing               *
           ************************************************************


           ************************************************************
           *        Program running with 8 parallel MPI-processes     *
           *              working on a common directory               *
           ************************************************************

Diagonalization of the overlap matrix:
Smallest eigenvalue                        ... 1.895e-04
Time for diagonalization                   ...    0.360 sec
Threshold for overlap eigenvalues          ... 1.000e-08
Number of eigenvalues below threshold      ... 0
Time for construction of square roots      ...    0.020 sec
Total time needed                          ...    0.380 sec

-------------------
DFT GRID GENERATION
-------------------

General Integration Accuracy     IntAcc      ...  4.340
Radial Grid Type                 RadialGrid  ... Gauss-Chebyshev
Angular Grid (max. acc.)         AngularGrid ... Lebedev-194
Angular grid pruning method      GridPruning ... 3 (G Style)
Weight generation scheme         WeightScheme... Becke
Basis function cutoff            BFCut       ...    1.0000e-11
Integration weight cutoff        WCut        ...    1.0000e-14
Grids for H and He will be reduced by one unit

# of grid points (after initial pruning)     ...  44482 (   0.0 sec)
# of grid points (after weights+screening)   ...  40423 (   0.2 sec)
nearest neighbour list constructed           ...    0.0 sec
Grid point re-assignment to atoms done       ...    0.0 sec
Grid point division into batches done        ...    0.1 sec
Reduced shell lists constructed in    0.3 sec

Total number of grid points                  ...    40423
Total number of batches                      ...      643
Average number of points per batch           ...       62
Average number of grid points per atom       ...     1925
Average number of shells per batch           ...   102.15 (76.80%)
Average number of basis functions per batch  ...   236.93 (78.71%)
Average number of large shells per batch     ...    82.39 (80.66%)
Average number of large basis fcns per batch ...   189.85 (80.13%)
Maximum spatial batch extension              ...   1.89,  2.03,  2.10 au
Average spatial batch extension              ...   0.14,  0.14,  0.14 au

Time for grid setup =    0.709 sec

--------------
SCF ITERATIONS
--------------
ITER       Energy         Delta-E        Max-DP      RMS-DP      [F,P]     Damp
               ***  Starting incremental Fock matrix formation  ***
                      *** Initiating the SOSCF procedure ***
                      *** Re-Reading the Fockian *** 
                      *** Removing any level shift *** 
ITER      Energy       Delta-E        Grad      Rot      Max-DP    RMS-DP
  0   -328.42669738 -328.4266973783  0.000327  0.000327  0.000625  0.000014
               *** Restarting incremental Fock matrix formation ***
  1   -328.42671018  -0.0000128054  0.000098  0.000218  0.000265  0.000006
  2   -328.42671142  -0.0000012342  0.000020  0.000052  0.000085  0.000002
  3   -328.42671141   0.0000000067  0.000037  0.000017  0.000052  0.000001
  4   -328.42671145  -0.0000000410  0.000003  0.000004  0.000008  0.000000
                  ***Gradient check signals convergence***
              ***Rediagonalizing the Fockian in SOSCF/NRSCF***

               *****************************************************
               *                     SUCCESS                       *
               *           SCF CONVERGED AFTER   5 CYCLES          *
               *****************************************************

Setting up the final grid:

General Integration Accuracy     IntAcc      ...  5.010
Radial Grid Type                 RadialGrid  ... Gauss-Chebyshev
Angular Grid (max. acc.)         AngularGrid ... Lebedev-434
Angular grid pruning method      GridPruning ... 3 (G Style)
Weight generation scheme         WeightScheme... Becke
Basis function cutoff            BFCut       ...    1.0000e-11
Integration weight cutoff        WCut        ...    1.0000e-14
Grids for H and He will be reduced by one unit

# of grid points (after initial pruning)     ... 168610 (   0.0 sec)
# of grid points (after weights+screening)   ... 151204 (   6.1 sec)
nearest neighbour list constructed           ...    0.0 sec
Grid point re-assignment to atoms done       ...    0.0 sec
Grid point division into batches done        ...    1.3 sec
Reduced shell lists constructed in    1.6 sec

Total number of grid points                  ...   151204
Total number of batches                      ...     2372
Average number of points per batch           ...       63
Average number of grid points per atom       ...     7200
Average number of shells per batch           ...   101.26 (76.13%)
Average number of basis functions per batch  ...   234.49 (77.90%)
Average number of large shells per batch     ...    81.57 (80.56%)
Average number of large basis fcns per batch ...   188.37 (80.33%)
Maximum spatial batch extension              ...   2.05,  2.32,  2.24 au
Average spatial batch extension              ...   0.10,  0.10,  0.10 au

Final grid set up in    9.7 sec
Final integration                            ... done (   1.7 sec)
Change in XC energy                          ...     0.000228357
Integrated number of electrons               ...    58.000067376
Previous integrated no of electrons          ...    57.999461935
Total Energy       :         -328.42648310 Eh           -8936.93895 eV
  Last Energy change         ...    1.5461e-11  Tolerance :   1.0000e-08
  Last MAX-Density change    ...    3.7938e-06  Tolerance :   1.0000e-07
             **** THE GBW FILE WAS UPDATED (5721_+.gbw) ****
             **** DENSITY FILE WAS UPDATED (5721_+.scfp.tmp) ****
             **** ENERGY FILE WAS UPDATED (5721_+.en.tmp) ****
Total SCF time: 0 days 0 hours 1 min 11 sec 
           ************************************************************
           *              Shut down parallel processing               *
           ************************************************************

-------------------------   --------------------
FINAL SINGLE POINT ENERGY      -328.426483095517
-------------------------   --------------------



           ************************************************************
           *        Program running with 8 parallel MPI-processes     *
           *              working on a common directory               *
           ************************************************************
------------------------------------------------------------------------------
[...]
     39      -0.012023  -0.016568   0.003416  -0.005127  -0.013992   0.329991
     40       0.004574  -0.003681   0.000554  -0.000990  -0.002579   0.046851
     41       0.000167  -0.022872   0.003455  -0.008945  -0.026156   0.564223
     42       0.003373   0.682905  -0.081017  -0.142159  -0.002683   0.034669
     43       0.000488  -0.620725   0.071770   0.127267   0.002752  -0.029654
     44      -0.002113  -0.269099   0.025558   0.056415   0.001117  -0.017183
     45       0.019499  -0.155580  -0.014944  -0.515715   0.001751  -0.035996
     46       0.011231   0.147595   0.015007   0.503776  -0.001685   0.035654
     47       0.010028   0.058399   0.006112   0.194735  -0.000669   0.014470
     48      -0.015943   0.035989   0.023027   0.329541  -0.001018  -0.034245
     49       0.008944  -0.003845  -0.005900  -0.060916   0.000167   0.005830
     50       0.015659   0.034693   0.028069   0.369964  -0.001197  -0.040316
     51      -0.012679   0.023457   0.021132   0.190740  -0.000563   0.000674
     52       0.006107   0.010704   0.014538   0.123825  -0.000422  -0.001415
     53      -0.005927  -0.030209  -0.033923  -0.304498   0.000741   0.003209
     54      -0.000684   0.030896   0.279945  -0.021193  -0.000220   0.001070
     55      -0.003248   0.001581   0.018375  -0.000777  -0.000010   0.000213
     56       0.001848   0.020818   0.211336  -0.015786  -0.000122   0.000580
     57       0.005520  -0.035778  -0.246395   0.014182   0.000354  -0.000662
     58      -0.001984  -0.074679  -0.528954   0.028717   0.000728  -0.001333
     59      -0.006857   0.006651   0.048789  -0.001992  -0.000104  -0.000180
     60      -0.000433  -0.038604  -0.459740   0.041412   0.000565   0.000723
     61      -0.000137   0.046166   0.526997  -0.046858  -0.000594  -0.000599
     62       0.003108   0.006578   0.161583  -0.012857  -0.000235  -0.000637
                 54         55         56         57         58         59    
      0      -0.000026   0.000239   0.000151  -0.000310  -0.001923   0.070134
      1       0.000023  -0.000046  -0.000099   0.000337   0.002774  -0.048408
      2       0.000018  -0.000149   0.000017  -0.000116   0.000155   0.043277
      3      -0.000037   0.000064  -0.000190   0.000158   0.001516  -0.001126
      4      -0.000043  -0.000267  -0.000047   0.000107   0.001105   0.000908
      5      -0.000035   0.000212  -0.000357   0.000474   0.002772  -0.002256
      6      -0.000000   0.000303   0.002201  -0.004817  -0.043331  -0.001672
      7      -0.000217   0.005756   0.004294  -0.005883  -0.054868  -0.002017
      8       0.000252  -0.000637   0.003720  -0.007183  -0.065301  -0.001644
      9      -0.000959  -0.006847   0.000978  -0.000005  -0.000305  -0.000142
     10       0.000910   0.006223  -0.000595  -0.000146  -0.001412   0.000018
     11       0.000129   0.002012  -0.001439  -0.001068  -0.001023   0.000107
     12       0.009476  -0.084112   0.015695   0.001725  -0.001458  -0.000035
     13      -0.002501   0.028787   0.023600   0.001333   0.002057   0.000057
     14      -0.005167  -0.010608  -0.086510  -0.005560  -0.005401  -0.000071
     15       0.000067   0.000435   0.000243  -0.000132   0.000330  -0.000003
     16       0.000198  -0.000099   0.000074  -0.000144  -0.000007   0.000003
     17       0.000365   0.000282   0.000146   0.000114   0.000447  -0.000063
     18       0.010703   0.001467  -0.005013   0.081631  -0.009317   0.000120
     19      -0.093077  -0.008818   0.005369   0.009766  -0.001008   0.000004
     20      -0.003678   0.000909  -0.002801   0.041221  -0.004323   0.000058
     21       0.000129  -0.002067  -0.001769   0.003119   0.023389  -0.615769
     22      -0.000154   0.001407   0.001123  -0.002053  -0.014700   0.420454
     23       0.000034   0.000052   0.000010  -0.000019  -0.000286   0.033295
     24       0.000109  -0.000880  -0.000087  -0.000161  -0.002228   0.032760
     25       0.000109  -0.001952  -0.000057  -0.001225  -0.014786   0.086197
     26      -0.000062  -0.000375  -0.000000  -0.000693  -0.008153   0.051372
     27      -0.000022   0.000421  -0.000051   0.000779   0.002123  -0.246896
     28      -0.000014  -0.000183  -0.000026  -0.000305  -0.000969   0.065961
     29      -0.000030   0.001588  -0.000054   0.002280   0.008174  -0.595841
     30      -0.000375   0.003215  -0.000234  -0.001129  -0.011128  -0.000871
     31       0.000387   0.002062   0.001329  -0.001855  -0.016740  -0.008110
     32       0.000629  -0.001784   0.000470  -0.000594  -0.006031  -0.004957
     33       0.000651  -0.000154   0.001726  -0.000567  -0.005289   0.019796
     34      -0.000618   0.001403  -0.000311  -0.000125  -0.000284  -0.001136
     35       0.000465  -0.002754   0.004056  -0.004507  -0.028979   0.030485
     36       0.000876  -0.015194  -0.012216   0.015435   0.144651   0.005118
     37       0.003068  -0.066011  -0.054000   0.066043   0.616844   0.023300
     38       0.000549  -0.013944  -0.010711   0.013646   0.126576   0.005647
     39      -0.002134   0.012116  -0.017777   0.040810   0.370230   0.007469
     40      -0.000472   0.001711  -0.002495   0.004237   0.038635   0.000929
     41      -0.003513   0.022175  -0.030013   0.070772   0.644484   0.015378
     42       0.006759   0.068361  -0.010939  -0.004093  -0.008224  -0.000187
     43      -0.006858  -0.066172   0.010737   0.003918   0.008957   0.000043
     44      -0.006739  -0.029216   0.006296   0.000251   0.004964   0.000124
     45      -0.056661   0.403124  -0.072015  -0.007889   0.003381   0.000347
     46       0.056672  -0.405050   0.077440   0.008456  -0.002408  -0.000369
     47       0.021350  -0.160358   0.012412   0.002312  -0.002525  -0.000125
     48      -0.016779   0.460275   0.320334   0.016578   0.035557   0.000340
     49       0.003790  -0.070923  -0.047874  -0.002688  -0.004686  -0.000085
     50      -0.023902   0.544812   0.344630   0.017835   0.039241   0.000422
     51      -0.037796   0.139013  -0.432094  -0.029518  -0.018346   0.000017
     52      -0.030446   0.123715  -0.309670  -0.021751  -0.012805   0.000086
     53       0.062954  -0.257379   0.679380   0.046578   0.029060   0.000158
     54      -0.040686  -0.017189   0.050064  -0.737524   0.082523  -0.001090
     55      -0.025639  -0.003224   0.004243  -0.048988   0.005567  -0.000076
     56      -0.034206  -0.014016   0.039126  -0.560507   0.062846  -0.000945
     57       0.337818   0.035577  -0.020598  -0.097413   0.011800  -0.000117
     58       0.671041   0.071138  -0.037957  -0.237034   0.028337  -0.000296
     59      -0.060523  -0.005558   0.003091   0.025287  -0.003825   0.000034
     60      -0.421140  -0.034512   0.027473  -0.130622   0.016524  -0.000319
     61       0.456936   0.037217  -0.031089   0.169738  -0.021148   0.000354
     62       0.138349   0.010304  -0.009227   0.053735  -0.006837   0.000122
                  60         61         62    
      0      -0.008261  -0.001038   0.000351
      1      -0.069685   0.001179   0.002028
      2      -0.064871  -0.002174   0.001276
      3       0.000880  -0.022598   0.015729
      4       0.001866   0.017125   0.063371
      5       0.002356  -0.060966   0.035022
      6      -0.000647  -0.003950   0.000577
      7      -0.001261   0.001018   0.002058
      8      -0.000748  -0.002411   0.001428
      9      -0.000027   0.000328  -0.000198
     10       0.000085  -0.000252  -0.000125
     11       0.000050   0.000758  -0.000136
     12      -0.000033  -0.000370   0.000075
     13       0.000043   0.000142  -0.000166
     14      -0.000122   0.000037   0.000112
     15      -0.000001  -0.000249   0.000149
     16       0.000008  -0.000001   0.000052
     17       0.000035  -0.000131  -0.000051
     18      -0.000097   0.000173  -0.000061
     19      -0.000014   0.000099  -0.000115
     20       0.000001  -0.000785   0.000208
     21      -0.255214   0.011110   0.005621
     22       0.161988  -0.006974  -0.004264
     23      -0.000449  -0.000340  -0.001220
     24       0.161578  -0.000839  -0.008054
     25       0.728819  -0.002089  -0.025357
     26       0.333173   0.000665  -0.007767
     27       0.189845   0.007990  -0.002663
     28      -0.066410  -0.009468   0.000637
     29       0.435003   0.041012  -0.008089
     30       0.001830  -0.032651  -0.166033
     31      -0.023344  -0.142747  -0.903680
     32      -0.015256  -0.067104  -0.358564
     33      -0.011333   0.373616  -0.054237
     34       0.000745  -0.100113   0.030217
     35      -0.015289   0.903553  -0.127391
     36       0.001940   0.001936  -0.001290
     37       0.016541  -0.004472  -0.024115
     38       0.003815  -0.000464  -0.006339
     39       0.005053   0.023424  -0.005830
     40      -0.000022   0.000045  -0.002350
     41       0.007048   0.027281  -0.008660
     42       0.000113  -0.006970   0.001242
     43      -0.000155   0.004497   0.000370
     44       0.000209  -0.001750   0.000015
     45       0.000164   0.002503   0.000545
     46      -0.000277  -0.002811   0.001671
     47      -0.000160  -0.000645  -0.001395
     48       0.000774  -0.000944   0.000472
     49      -0.000125  -0.000747   0.000053
     50       0.000840  -0.000679  -0.000036
     51      -0.000070   0.001833  -0.000711
     52       0.000018   0.001392   0.000678
     53       0.000300  -0.001777   0.000276
     54       0.000524   0.001115  -0.000260
     55       0.000039  -0.000058   0.000044
     56       0.000419  -0.000187  -0.000162
     57       0.000254  -0.002219   0.000701
     58       0.000524  -0.003672   0.001232
     59      -0.000086   0.001707  -0.000387
     60       0.000335  -0.004063   0.000681
     61      -0.000374   0.003228  -0.000412
     62      -0.000115   0.002507  -0.000541


-----------
IR SPECTRUM
-----------

 Mode    freq (cm**-1)   T**2         TX         TY         TZ
-------------------------------------------------------------------
   6:        68.26    4.005681  ( -0.047554   1.947699   0.458135)
   7:        78.13    2.167803  (  0.735198   1.187410  -0.466202)
   8:       119.99    5.472743  (  1.157869   0.939315   1.802712)
   9:       174.12    7.140924  (  1.540103   1.204376  -1.821672)
  10:       186.33    7.236893  ( -1.446551   0.741231   2.143586)
  11:       228.25    0.748964  (  0.396976  -0.750638  -0.167083)
  12:       241.94    5.975572  (  0.133533   0.558105   2.376186)
  13:       309.33    3.796916  (  0.565624  -1.826235  -0.376634)
  14:       348.52   10.917309  (  2.946768  -0.336171  -1.456317)
  15:       376.53    2.404939  ( -0.683610  -0.299113   1.359466)
  16:       454.78    6.492352  (  1.536945   2.010692   0.295420)
  17:       628.85    6.428758  (  2.356385  -0.053183  -0.934548)
  18:       810.79   12.044678  ( -0.001193   1.475292   3.141367)
  19:       821.96    9.216138  (  3.015946   0.189971   0.290029)
  20:       906.21    3.142699  ( -0.285256  -1.283969  -1.188592)
  21:       925.24   12.901080  ( -3.517878   0.326906   0.647105)
  22:       943.13    6.367958  (  2.426043   0.385996  -0.577304)
  23:      1049.85    8.320853  ( -2.299594  -1.268718   1.192927)
  24:      1057.90    1.848304  ( -0.565363  -0.621538   1.068812)
  25:      1076.39    7.851498  ( -2.217415   0.604168   1.602982)
  26:      1117.95   40.957670  ( -1.997791   0.421694   6.065367)
  27:      1164.00   51.359530  (  2.504927  -0.738273   6.673816)
  28:      1175.80   47.887685  (  0.783524   2.618948  -6.357270)
  29:      1177.92   78.477542  (  2.089144   0.998698  -8.550767)
  30:      1195.98    5.725784  (  0.254319  -1.108256  -2.105439)
  31:      1235.82   27.022631  ( -3.044600  -0.290215  -4.203429)
  32:      1307.89   11.297576  (  3.231399   0.833381  -0.401392)
  33:      1353.01    6.308433  (  2.437335   0.558193   0.237170)
  34:      1365.99   72.574133  (  6.273789   0.557924  -5.736064)
  35:      1373.82    0.520964  (  0.543445   0.063898  -0.470689)
  36:      1401.38   18.441000  ( -0.974113   0.777599   4.109434)
  37:      1416.37   24.516282  ( -1.678843  -3.633175  -2.915100)
  38:      1428.60   51.052912  ( -6.392568   0.011682   3.191842)
  39:      1460.70    1.352978  (  0.913319   0.677331  -0.245049)
  40:      1472.34    7.815968  (  2.757658  -0.158293  -0.431549)
  41:      1475.80    7.055529  ( -0.470685   0.839021   2.475889)
  42:      1485.26   11.783468  ( -0.505948   3.321234   0.704906)
  43:      1488.24   25.359749  (  2.986116   1.082905  -3.907707)
  44:      1494.10   19.524095  (  3.393238   1.274978   2.526750)
  45:      1496.91   15.515885  (  0.770727  -3.859796  -0.154409)
  46:      1501.83    5.593051  (  1.042164   0.917192   1.914603)
  47:      1505.64   32.311587  (  4.801946  -2.998755   0.510269)
  48:      1660.35   36.908343  (  0.288138  -5.086887   3.308913)
  49:      3033.45    7.216837  ( -1.321081   1.956308  -1.282357)
  50:      3041.47   29.325145  (  2.824606  -0.021379  -4.620204)
  51:      3052.40   10.514087  (  1.889051  -2.367083  -1.158659)
  52:      3091.45    0.602757  (  0.379245   0.226861  -0.638329)
  53:      3107.07    1.965206  (  0.278626   0.837623  -1.089018)
  54:      3115.74   20.125724  (  0.637965  -4.439396  -0.102402)
  55:      3128.96   10.271571  ( -2.962520   1.209264   0.180907)
  56:      3154.11    3.897530  (  0.393216   0.601406  -1.838810)
  57:      3170.39    4.556437  (  1.832393   0.248357   1.066346)
  58:      3170.62    1.546719  ( -0.688548  -0.363555  -0.969767)
  59:      3190.22    0.061675  (  0.027799   0.146322   0.198727)
  60:      3193.57    0.175838  (  0.168028   0.185679  -0.336344)
  61:      3342.18  148.623269  ( -0.691082  -2.734218  11.860427)
  62:      3485.29   57.506785  ( -1.005849  -6.034158  -4.481516)

The first frequency considered to be a vibration is 6
The total number of vibrations considered is 57


--------------------------
THERMOCHEMISTRY AT 298.15K
--------------------------

Temperature         ... 298.15 K
Pressure            ... 1.00 atm
Total Mass          ... 104.17 AMU

Throughout the following assumptions are being made:
  (1) The electronic state is orbitally nondegenerate
  (2) There are no thermally accessible electronically excited states
  (3) Hindered rotations indicated by low frequency modes) are not
      treated as such but are treated as vibrations and this may
      case some error
  (4) All equations used are the standard statistical mechanics
      equations for an ideal gas
  (5) All vibrations are strinctly harmonic


------------
INNER ENERGY
------------

The inner energy is: U= E(el) + E(ZPE) + E(vib) + E(rot) + E(trans)
    E(el)   - is the total energy from the electronic structure calculation
              = E(kin-el) + E(nuc-el) + E(el-el) + E(nuc-nuc)
    E(ZPE)  - the the zero temperature vibrational energy from the frequency calculation
    E(vib)  - the the finite temperature correction to E(ZPE) due to population
              of excietd vibrational states
    E(rot)  - is the rotational thermal energy
    E(trans)- is the translational thermal energy

Summary of contributions to the inner energy U:
Electronic energy                ...   -328.42648384 Eh
Zero point energy                ...      0.19783397 Eh     124.14 kcal/mol
Thermal vibrational correction   ...      0.00658182 Eh       4.13 kcal/mol
Thermal rotational correction    ...      0.00141627 Eh       0.89 kcal/mol
Thermal translational correction ...      0.00141627 Eh       0.89 kcal/mol
-----------------------------------------------------------------------
Total thermal energy                   -328.21923552 Eh


Summary of corrections to the electronic energy:
(perhaps to be used in another calculation)
Total thermal correction                  0.00941436 Eh       5.91 kcal/mol
Non-thermal (ZPE) correction              0.19783397 Eh     124.14 kcal/mol
-----------------------------------------------------------------------
Total correction                          0.20724833 Eh     130.05 kcal/mol


--------
ENTHALPY
--------

The enthalpy is H = U + kB*T
                kB is Boltzmann's constant
Total free energy                 ...   -328.21923552 Eh 
Thermal Enthalpy correction       ...      0.00094421 Eh       0.59 kcal/mol
-----------------------------------------------------------------------
Total Enthalpy                    ...   -328.21829131 Eh


-------
ENTROPY
-------

The entropy contributions are T*S = T*(S(el)+S(vib)+S(rot)+S(trans)
     S(el)   - electronic entropy
     S(vib)  - vibrational entropy
     S(rot)  - rotational entropy
     S(trans)- translational entropy
The entropies will be listed as mutliplied by the temperature to get
units of energy

Electronic entropy                ...      0.00000000 Eh      0.00 kcal/mol
Vibrational entropy               ...      0.01229351 Eh      7.71 kcal/mol
Rotational entropy                ...      0.01230667 Eh      7.72 kcal/mol
Translational entropy             ...      0.01892914 Eh     11.88 kcal/mol
-----------------------------------------------------------------------
Final entropy term                ...      0.04352932 Eh     27.32 kcal/mol


CAUTION: The rotational entropy is not quite correctly treated here
         because it includes a symmetry number that is not yet correctly
         implemented in ORCA!
For a nonlinear molecule the correct rotational entropy is:
    S(rot) = R*(ln(qrot/sn)+1.5)
    R    = 8.31441 J/mol/K = 1.987191683e-3 kcal/mol/K
    qrot = 306457.9377327
    sn is the rotational symmetry number. We have assumed 3 here
       if it is different for your molecule then you should correct
       the printed rotational entropy by manually evaluating the equation
       as given above

For convenience we print out the resulting values for sn=1 - 12:
 sn= 1  qrot/sn=  306457.9377 T*S(rot)=     8.37 kcal/mol T*S(tot)=    27.97 kcal/mol
 sn= 2  qrot/sn=  153228.9689 T*S(rot)=     7.96 kcal/mol T*S(tot)=    27.56 kcal/mol
 sn= 3  qrot/sn=  102152.6459 T*S(rot)=     7.72 kcal/mol T*S(tot)=    27.32 kcal/mol
 sn= 4  qrot/sn=   76614.4844 T*S(rot)=     7.55 kcal/mol T*S(tot)=    27.14 kcal/mol
 sn= 5  qrot/sn=   61291.5875 T*S(rot)=     7.42 kcal/mol T*S(tot)=    27.01 kcal/mol
 sn= 6  qrot/sn=   51076.3230 T*S(rot)=     7.31 kcal/mol T*S(tot)=    26.90 kcal/mol
 sn= 7  qrot/sn=   43779.7054 T*S(rot)=     7.22 kcal/mol T*S(tot)=    26.81 kcal/mol
 sn= 8  qrot/sn=   38307.2422 T*S(rot)=     7.14 kcal/mol T*S(tot)=    26.73 kcal/mol
 sn= 9  qrot/sn=   34050.8820 T*S(rot)=     7.07 kcal/mol T*S(tot)=    26.66 kcal/mol
 sn=10  qrot/sn=   30645.7938 T*S(rot)=     7.01 kcal/mol T*S(tot)=    26.60 kcal/mol
 sn=11  qrot/sn=   27859.8125 T*S(rot)=     6.95 kcal/mol T*S(tot)=    26.55 kcal/mol
 sn=12  qrot/sn=   25538.1615 T*S(rot)=     6.90 kcal/mol T*S(tot)=    26.49 kcal/mol


-------------------
GIBBS FREE ENTHALPY
-------------------

The Gibbs free enthalpy is G = H - T*S

Total enthalpy                    ...   -328.21829131 Eh 
Total entropy correction          ...     -0.04352932 Eh    -27.32 kcal/mol
-----------------------------------------------------------------------
Final Gibbs free enthalpy         ...   -328.26182063 Eh

For completeness - the Gibbs free enthalpy minus the electronic energy
G-E(el)                           ...      0.16466322 Eh    103.33 kcal/mol


Timings for individual modules:

Sum of individual times         ...     3613.073 sec (=  60.218 min)
GTO integral calculation        ...       13.425 sec (=   0.224 min)   0.4 %
SCF iterations                  ...      451.946 sec (=   7.532 min)  12.5 %
SCF Gradient evaluation         ...      211.754 sec (=   3.529 min)   5.9 %
Geometry relaxation             ...        0.404 sec (=   0.007 min)   0.0 %
Analytical frequency calculation...     2935.544 sec (=  48.926 min)  81.2 %
                             ****ORCA TERMINATED NORMALLY****
TOTAL RUN TIME: 0 days 1 hours 0 minutes 17 seconds 504 msec
