
                                 *****************
                                 * O   R   C   A *
                                 *****************

           --- An Ab Initio, DFT and Semiempirical electronic structure package ---

                  #######################################################
                  #                        -***-                        #
                  #  Department of molecular theory and spectroscopy    #
                  #              Directorship: Frank Neese              #
                  # Max Planck Institute for Chemical Energy Conversion #
                  #                  D-45470 Muelheim/Ruhr              #
                  #                       Germany                       #
                  #                                                     #
                  #                  All rights reserved                #
                  #                        -***-                        #
                  #######################################################


                         Program Version 3.0.3 - RELEASE   -


 With contributions from (in alphabetic order):
   Ute Becker             : Parallelization
   Dmytro Bykov           : SCF Hessian
   Dmitry Ganyushin       : Spin-Orbit,Spin-Spin,Magnetic field MRCI
   Andreas Hansen         : Spin unrestricted coupled pair/coupled cluster methods
   Dimitrios Liakos       : Extrapolation schemes; parallel MDCI
   Robert Izsak           : Overlap fitted RIJCOSX, COSX-SCS-MP3
   Christian Kollmar      : KDIIS, OOCD, Brueckner-CCSD(T), CCSD density
   Simone Kossmann        : Meta GGA functionals, TD-DFT gradient, OOMP2, MP2 Hessian
   Taras Petrenko         : DFT Hessian,TD-DFT gradient, ASA and ECA modules, normal mode analysis, Resonance Raman, ABS, FL, XAS/XES, NRVS
   Christoph Reimann      : Effective Core Potentials
   Michael Roemelt        : Restricted open shell CIS
   Christoph Riplinger    : Improved optimizer, TS searches, QM/MM, DLPNO-CCSD
   Barbara Sandhoefer     : DKH picture change effects
   Igor Schapiro          : Molecular dynamics
   Kantharuban Sivalingam : CASSCF convergence, NEVPT2
   Boris Wezisla          : Elementary symmetry handling
   Frank Wennmohs         : Technical directorship


 We gratefully acknowledge several colleagues who have allowed us to
 interface, adapt or use parts of their codes:
   Stefan Grimme, W. Hujo, H. Kruse, T. Risthaus : VdW corrections, initial TS optimization,
                                                   DFT functionals, gCP
   Ed Valeev                                     : LibInt (2-el integral package), F12 methods
   Garnet Chan, S. Sharma, R. Olivares           : DMRG
   Ulf Ekstrom                                   : XCFun DFT Library
   Mihaly Kallay                                 : mrcc  (arbitrary order and MRCC methods)
   Andreas Klamt, Michael Diedenhofen            : otool_cosmo (COSMO solvation model)
   Frank Weinhold                                : gennbo (NPA and NBO analysis)
   Christopher J. Cramer and Donald G. Truhlar   : smd solvation model


 Your calculation uses the libint2 library for the computation of 2-el integrals
 For citations please refer to: http://libint.valeyev.net

 This ORCA versions uses:
   CBLAS   interface :  Fast vector & matrix operations
   LAPACKE interface :  Fast linear algebra routines
   SCALAPACK package :  Parallel linear algebra routines


Your calculation utilizes the basis: Ahlrichs-TZV
Cite in your paper:
H - Kr: A. Schaefer, H. Horn and R. Ahlrichs, J. Chem. Phys. 97, 2571 (1992).

The def2-TZV basis will be loaded
Cite in your paper:
 	F. Weigend, R. Ahlrichs, Phys. Chem. Chem. Phys. 2005, 7, 3297.

================================================================================
                                        WARNINGS
                       Please study these warnings very carefully!
================================================================================
Now building the actual basis set
WARNING: Geometry optimizations can change the point-group symmetry!

WARNING: Geometry Optimization
  ===> : Switching off AutoStart
         For restart on a previous wavefunction, please use MOREAD


INFO   : the flag for use of LIBINT has been found!

================================================================================
                                       INPUT FILE
================================================================================
NAME = 6209_+.inp
|  1> ! NORI PBE0 def2-TZVP UseSym TightOPT Freq TightSCF Grid3 FinalGrid5 XYZFile
|  2> % pal
|  3>     nprocs 8
|  4> end
|  5> %method
|  6>     SymThresh 5.0e-2
|  7> end
|  8> % geom 
|  9>     MaxIter 10
| 10> end 
| 11> % maxcore 2000
| 12> % output
| 13>     printlevel mini
| 14>     print[ P_Basis ] 0
| 15>     print[ P_SCFInfo ] 1
| 16>     print[ P_SCFIterInfo ] 1
| 17>     print[ P_OrbEn ] 0
| 18>     print[ P_Cartesian ] 0
| 19> end
| 20> % elprop
| 21>     Dipole false
| 22> end
| 23> *xyz 1 1
| 24>  N        1.5693459656    -0.4888208122    -1.1863330474 
| 25>  C        2.0312416119     0.1922230891     0.0705363679 
| 26>  C        2.6182785517     1.4876842822    -0.3670355062 
| 27>  C        2.7832399839     2.6867781529     0.2277193756 
| 28>  O        3.4440760083     3.4767556060    -0.6502826837 
| 29>  C        3.6405668235     2.7293702904    -1.7371964122 
| 30>  N        3.1719351902     1.5319682263    -1.6309420568 
| 31>  H        1.5549031749    -1.5053467500    -1.1075935906 
| 32>  H        2.2387813655    -0.1840467491    -1.9221614597 
| 33>  H        0.6418913227    -0.1705275130    -1.4705373570 
| 34>  H        2.7817105032    -0.4613313129     0.5210950831 
| 35>  H        1.1936126560     0.2949974092     0.7584501679 
| 36>  H        2.5291952292     3.1130904255     1.1833426900 
| 37>  H        4.1497816133     3.1809756557    -2.5745615708 
| 38> *
| 39> 
| 40>                          ****END OF INPUT****
================================================================================

The point group is C1 - hence turning off symmetry
If this is a round-off problem, please increase the symmetry
        detection tolerance (%method SymThresh)


                       *****************************
                       * Geometry Optimization Run *
                       *****************************

Geometry optimization settings:
Update method            Update   .... BFGS
Choice of coordinates    CoordSys .... Redundant Internals
Initial Hessian          InHess   .... Almoef's Model

Convergence Tolerances:
Energy Change            TolE     ....  1.0000e-06 Eh
Max. Gradient            TolMAXG  ....  1.0000e-04 Eh/bohr
RMS Gradient             TolRMSG  ....  3.0000e-05 Eh/bohr
Max. Displacement        TolMAXD  ....  1.0000e-03 bohr
RMS Displacement         TolRMSD  ....  6.0000e-04 bohr

------------------------------------------------------------------------------
                        ORCA OPTIMIZATION COORDINATE SETUP
------------------------------------------------------------------------------

The optimization will be done in new redundant internal coordinates
Making redundant internal coordinates   ...  (new redundants) done
Evaluating the initial hessian          ...  (Almloef) done
Evaluating the coordinates              ...  done
Calculating the B-matrix                .... done
Calculating the G-matrix                .... done
Diagonalizing the G-matrix              .... done
The first mode is                       ....   28
The number of degrees of freedom        ....   36

    -----------------------------------------------------------------
                    Redundant Internal Coordinates


    -----------------------------------------------------------------
         Definition                    Initial Value    Approx d2E/dq
    -----------------------------------------------------------------
      1. B(C   1,N   0)                  1.5023         0.370439   
      2. B(C   2,C   1)                  1.4881         0.435814   
      3. B(C   3,C   2)                  1.3486         0.727378   
      4. B(O   4,C   3)                  1.3534         0.640161   
      5. B(C   5,O   4)                  1.3336         0.688346   
      6. B(N   6,C   5)                  1.2902         0.807351   
      7. B(N   6,C   2)                  1.3806         0.579336   
      8. B(H   7,N   0)                  1.0197         0.417601   
      9. B(H   8,N   0)                  1.0404         0.386956   
     10. B(H   9,N   0)                  1.0209         0.415710   
     11. B(H  10,C   1)                  1.0924         0.356938   
     12. B(H  11,C   1)                  1.0888         0.361737   
     13. B(H  12,C   3)                  1.0768         0.377993   
     14. B(H  13,C   5)                  1.0791         0.374831   
     15. A(C   1,N   0,H   9)          111.7700         0.326829   
     16. A(H   7,N   0,H   9)          108.6292         0.299622   
     17. A(H   7,N   0,H   8)          110.8398         0.296232   
     18. A(C   1,N   0,H   8)          105.1339         0.323002   
     19. A(C   1,N   0,H   7)          113.0595         0.327074   
     20. A(H   8,N   0,H   9)          107.2364         0.296019   
     21. A(N   0,C   1,C   2)          105.6606         0.370214   
     22. A(H  10,C   1,H  11)          108.9296         0.290644   
     23. A(C   2,C   1,H  11)          114.0240         0.332921   
     24. A(N   0,C   1,H  11)          109.5641         0.322177   
     25. A(C   2,C   1,H  10)          111.7839         0.332185   
     26. A(N   0,C   1,H  10)          106.5631         0.321473   
     27. A(C   3,C   2,N   6)          109.0365         0.438419   
     28. A(C   1,C   2,N   6)          117.0870         0.400168   
     29. A(C   1,C   2,C   3)          133.8382         0.419334   
     30. A(C   2,C   3,O   4)          107.0143         0.446405   
     31. A(O   4,C   3,H  12)          117.3771         0.355550   
     32. A(C   2,C   3,H  12)          135.6052         0.365644   
     33. A(C   3,O   4,C   5)          105.8759         0.439066   
     34. A(O   4,C   5,N   6)          113.5446         0.457943   
     35. A(N   6,C   5,H  13)          128.5872         0.369389   
     36. A(O   4,C   5,H  13)          117.8674         0.359449   
     37. A(C   2,N   6,C   5)          104.5265         0.443823   
     38. D(H  11,C   1,N   0,H   7)    -83.5932         0.012586   
     39. D(H  10,C   1,N   0,H   7)     34.1092         0.012586   
     40. D(H  11,C   1,N   0,H   9)     39.3532         0.012586   
     41. D(H  11,C   1,N   0,H   8)    155.3642         0.012586   
     42. D(H  10,C   1,N   0,H   9)    157.0556         0.012586   
     43. D(C   2,C   1,N   0,H   7)    153.1529         0.012586   
     44. D(C   2,C   1,N   0,H   9)    -83.9007         0.012586   
     45. D(H  10,C   1,N   0,H   8)    -86.9334         0.012586   
     46. D(C   2,C   1,N   0,H   8)     32.1104         0.012586   
     47. D(N   6,C   2,C   1,H  10)     86.6922         0.014020   
     48. D(N   6,C   2,C   1,N   0)    -28.8304         0.014020   
     49. D(C   3,C   2,C   1,H  11)     33.3307         0.014020   
     50. D(C   3,C   2,C   1,H  10)    -90.7680         0.014020   
     51. D(N   6,C   2,C   1,H  11)   -149.2091         0.014020   
     52. D(C   3,C   2,C   1,N   0)    153.7094         0.014020   
     53. D(H  12,C   3,C   2,N   6)   -179.7203         0.037515   
     54. D(H  12,C   3,C   2,C   1)     -2.1122         0.037515   
     55. D(O   4,C   3,C   2,N   6)     -0.4430         0.037515   
     56. D(O   4,C   3,C   2,C   1)    177.1650         0.037515   
     57. D(C   5,O   4,C   3,H  12)    179.9027         0.030212   
     58. D(C   5,O   4,C   3,C   2)      0.4721         0.030212   
     59. D(H  13,C   5,O   4,C   3)    179.3552         0.035370   
     60. D(N   6,C   5,O   4,C   3)     -0.3503         0.035370   
     61. D(C   2,N   6,C   5,H  13)   -179.5894         0.050347   
     62. D(C   2,N   6,C   5,O   4)      0.0775         0.050347   
     63. D(C   5,N   6,C   2,C   3)      0.2310         0.024407   
     64. D(C   5,N   6,C   2,C   1)   -177.8313         0.024407   
    -----------------------------------------------------------------

Number of atoms                         .... 14
Number of degrees of freedom            .... 64

         *************************************************************
         *                GEOMETRY OPTIMIZATION CYCLE   1            *
         *************************************************************


           ************************************************************
           *        Program running with 8 parallel MPI-processes     *
           *              working on a common directory               *
           ************************************************************
           ************************************************************
           *              Shut down parallel processing               *
           ************************************************************


           ************************************************************
           *        Program running with 8 parallel MPI-processes     *
           *              working on a common directory               *
           ************************************************************
------------
SCF SETTINGS
------------
Hamiltonian:
 Density Functional     Method          .... DFT(GTOs)
 Exchange Functional    Exchange        .... PBE
   PBE kappa parameter  XKappa          ....  0.804000
 Correlation Functional Correlation     .... PBE
 LDA part of GGA corr.  LDAOpt          .... PW91-LDA
 Gradients option       PostSCFGGA      .... off
 Hybrid DFT is turned on
   Fraction HF Exchange ScalHFX         ....  0.250000
   Scaling of DF-GGA-X  ScalDFX         ....  0.750000
   Scaling of DF-GGA-C  ScalDFC         ....  1.000000
   Scaling of DF-LDA-C  ScalLDAC        ....  1.000000
   Perturbative correction              ....  0.000000
   NL short-range parameter             ....  6.900000


General Settings:
 Integral files         IntName         .... 6209_+
 Hartree-Fock type      HFTyp           .... RHF
 Total Charge           Charge          ....    1
 Multiplicity           Mult            ....    1
 Number of Electrons    NEL             ....   52
 Basis Dimension        Dim             ....  259
 Nuclear Repulsion      ENuc            ....    307.6759601726 Eh

Convergence Acceleration:
 DIIS                   CNVDIIS         .... on
   Start iteration      DIISMaxIt       ....    12
   Startup error        DIISStart       ....  0.200000
   # of expansion vecs  DIISMaxEq       ....     5
   Bias factor          DIISBfac        ....   1.050
   Max. coefficient     DIISMaxC        ....  10.000
 Newton-Raphson         CNVNR           .... off
 SOSCF                  CNVSOSCF        .... on
   Start iteration      SOSCFMaxIt      ....   150
   Startup grad/error   SOSCFStart      ....  0.003300
 Level Shifting         CNVShift        .... on
   Level shift para.    LevelShift      ....    0.2500
   Turn off err/grad.   ShiftErr        ....    0.0010
 Zerner damping         CNVZerner       .... off
 Static damping         CNVDamp         .... on
   Fraction old density DampFac         ....    0.7000
   Max. Damping (<1)    DampMax         ....    0.9800
   Min. Damping (>=0)   DampMin         ....    0.0000
   Turn off err/grad.   DampErr         ....    0.1000
 Fernandez-Rico         CNVRico         .... off

SCF Procedure:
 Maximum # iterations   MaxIter         ....   125
 SCF integral mode      SCFMode         .... Direct
   Integral package                     .... LIBINT
 Reset frequeny         DirectResetFreq ....    20
 Integral Threshold     Thresh          ....  2.500e-11 Eh
 Primitive CutOff       TCut            ....  2.500e-12 Eh

Convergence Tolerance:
 Convergence Check Mode ConvCheckMode   .... Total+1el-Energy
 Energy Change          TolE            ....  1.000e-08 Eh
 1-El. energy change                    ....  1.000e-05 Eh
 Orbital Gradient       TolG            ....  1.000e-05
 Orbital Rotation angle TolX            ....  1.000e-05
 DIIS Error             TolErr          ....  5.000e-07


Diagonalization of the overlap matrix:
Smallest eigenvalue                        ... 8.497e-05
Time for diagonalization                   ...    0.121 sec
Threshold for overlap eigenvalues          ... 1.000e-08
Number of eigenvalues below threshold      ... 0
Time for construction of square roots      ...    0.020 sec
Total time needed                          ...    0.141 sec

-------------------
DFT GRID GENERATION
-------------------

General Integration Accuracy     IntAcc      ...  4.340
Radial Grid Type                 RadialGrid  ... Gauss-Chebyshev
Angular Grid (max. acc.)         AngularGrid ... Lebedev-194
Angular grid pruning method      GridPruning ... 3 (G Style)
Weight generation scheme         WeightScheme... Becke
Basis function cutoff            BFCut       ...    1.0000e-11
Integration weight cutoff        WCut        ...    1.0000e-14
Grids for H and He will be reduced by one unit

# of grid points (after initial pruning)     ...  33832 (   0.0 sec)
# of grid points (after weights+screening)   ...  31436 (   0.1 sec)
nearest neighbour list constructed           ...    0.0 sec
Grid point re-assignment to atoms done       ...    0.0 sec
Grid point division into batches done        ...    0.1 sec
Reduced shell lists constructed in    0.1 sec

Total number of grid points                  ...    31436
Total number of batches                      ...      498
Average number of points per batch           ...       63
Average number of grid points per atom       ...     2245
Average number of shells per batch           ...    82.92 (78.97%)
Average number of basis functions per batch  ...   210.45 (81.26%)
Average number of large shells per batch     ...    69.75 (84.12%)
Average number of large basis fcns per batch ...   174.97 (83.14%)
Maximum spatial batch extension              ...   2.79,  3.00,  2.86 au
Average spatial batch extension              ...   0.15,  0.15,  0.15 au

Time for grid setup =    0.559 sec

Loading Hartree-Fock densities                     ... done
Calculating cut-offs                               ... done
Setting up the integral package                    ... done
Initializing the effective Hamiltonian             ... done
Starting the Coulomb interaction                   ... done (   0.0 sec)
Reading the grid                                   ... done
Mapping shells                                     ... done
Starting the XC term evaluation                    ... done (   0.3 sec)
  promolecular density results
     # of electrons  =     52.997221551
     EX              =    -43.840358157
     EC              =     -1.781534705
     EX+EC           =    -45.621892862
Transforming the Hamiltonian                       ... done (   0.0 sec)
Diagonalizing the Hamiltonian                      ... done (   0.0 sec)
Back transforming the eigenvectors                 ... done (   0.0 sec)
Now organizing SCF variables                       ... done
--------------
SCF ITERATIONS
--------------
ITER       Energy         Delta-E        Max-DP      RMS-DP      [F,P]     Damp
               ***  Starting incremental Fock matrix formation  ***
  0   -340.7393968998   0.000000000000 0.03597880  0.00070787  0.1949886 0.7000
  1   -340.7893883580  -0.049991458206 0.02267566  0.00053006  0.0921526 0.7000
                               ***Turning on DIIS***
  2   -340.8104819241  -0.021093566106 0.03105374  0.00101615  0.0304235 0.0000
  3   -340.8448728840  -0.034390959944 0.01708476  0.00035924  0.0446974 0.0000
  4   -340.8510933840  -0.006220499978 0.00417083  0.00012599  0.0120120 0.0000
                      *** Initiating the SOSCF procedure ***
                           *** Shutting down DIIS ***
                      *** Re-Reading the Fockian *** 
                      *** Removing any level shift *** 
ITER      Energy       Delta-E        Grad      Rot      Max-DP    RMS-DP
  5   -340.85147352  -0.0003801356  0.000447  0.000447  0.001437  0.000044
               *** Restarting incremental Fock matrix formation ***
  6   -340.85149034  -0.0000168227  0.000355  0.001025  0.001159  0.000027
  7   -340.85148603   0.0000043158  0.000724  0.000689  0.000598  0.000011
  8   -340.85149333  -0.0000073073  0.000042  0.000125  0.000090  0.000002
  9   -340.85149329   0.0000000457  0.000073  0.000097  0.000059  0.000001
 10   -340.85149339  -0.0000001024  0.000003  0.000007  0.000009  0.000000
 11   -340.85149339  -0.0000000007  0.000003  0.000006  0.000005  0.000000
                 **** Energy Check signals convergence ****
              ***Rediagonalizing the Fockian in SOSCF/NRSCF***

               *****************************************************
               *                     SUCCESS                       *
               *           SCF CONVERGED AFTER  12 CYCLES          *
               *****************************************************

Setting up the final grid:

General Integration Accuracy     IntAcc      ...  5.010
Radial Grid Type                 RadialGrid  ... Gauss-Chebyshev
Angular Grid (max. acc.)         AngularGrid ... Lebedev-434
Angular grid pruning method      GridPruning ... 3 (G Style)
Weight generation scheme         WeightScheme... Becke
Basis function cutoff            BFCut       ...    1.0000e-11
Integration weight cutoff        WCut        ...    1.0000e-14
Grids for H and He will be reduced by one unit

# of grid points (after initial pruning)     ... 121658 (   0.0 sec)
# of grid points (after weights+screening)   ... 111979 (   0.2 sec)
nearest neighbour list constructed           ...    0.0 sec
Grid point re-assignment to atoms done       ...    0.0 sec
Grid point division into batches done        ...    0.7 sec
Reduced shell lists constructed in    0.9 sec

Total number of grid points                  ...   111979
Total number of batches                      ...     1757
Average number of points per batch           ...       63
Average number of grid points per atom       ...     7998
Average number of shells per batch           ...    82.31 (78.39%)
Average number of basis functions per batch  ...   208.39 (80.46%)
Average number of large shells per batch     ...    69.20 (84.08%)
Average number of large basis fcns per batch ...   173.93 (83.46%)
Maximum spatial batch extension              ...   3.04,  2.09,  2.44 au
Average spatial batch extension              ...   0.11,  0.10,  0.10 au

Final grid set up in    1.3 sec
Final integration                            ... done (   0.6 sec)
Change in XC energy                          ...     0.000357444
Integrated number of electrons               ...    51.999998881
Previous integrated no of electrons          ...    52.000346854
Total Energy       :         -340.85113595 Eh           -9275.03094 eV
  Last Energy change         ...   -7.5374e-11  Tolerance :   1.0000e-08
  Last MAX-Density change    ...    1.4751e-06  Tolerance :   1.0000e-07
             **** THE GBW FILE WAS UPDATED (6209_+.gbw) ****
             **** DENSITY FILE WAS UPDATED (6209_+.scfp.tmp) ****
             **** ENERGY FILE WAS UPDATED (6209_+.en.tmp) ****
Total SCF time: 0 days 0 hours 1 min 9 sec 
           ************************************************************
           *              Shut down parallel processing               *
           ************************************************************

-------------------------   --------------------
FINAL SINGLE POINT ENERGY      -340.851135946847
-------------------------   --------------------



           ************************************************************
           *        Program running with 8 parallel MPI-processes     *
           *              working on a common directory               *
           ************************************************************
------------------------------------------------------------------------------
                         ORCA SCF GRADIENT CALCULATION
------------------------------------------------------------------------------

Gradient of the Kohn-Sham DFT energy:
Kohn-Sham wavefunction type      ... RKS
Hartree-Fock exchange scaling    ...    0.250
Number of operators              ...    1
Number of atoms                  ...   14
Basis set dimensions             ...  259
Integral neglect threshold       ... 2.5e-11
Integral primitive cutoff        ... 2.5e-12

Nuclear repulsion gradient       ... done
One Electron Gradient            ... done
Pre-screening matrix             ... done
Starting the two electron gradient:
Two electron gradient done
Exchange-correlation gradient    ... done

------------------
CARTESIAN GRADIENT
------------------

   1   N   :    0.000220686   -0.000014232    0.000004733
   2   C   :    0.000018627    0.000018755    0.000232228
   3   C   :    0.000009661   -0.000098091    0.000025208
   4   C   :   -0.000094623    0.000179016    0.000047157
   5   O   :    0.000048789   -0.000006901   -0.000017506
   6   C   :   -0.000040537    0.000010925   -0.000098460
   7   N   :    0.000013335    0.000052118    0.000033647
   8   H   :   -0.000065161   -0.000008317   -0.000132902
   9   H   :    0.000017335   -0.000086556    0.000039748
  10   H   :   -0.000068119    0.000000879   -0.000008253
  11   H   :   -0.000171412   -0.000071212   -0.000046363
  12   H   :    0.000082823    0.000127337   -0.000025706
  13   H   :    0.000025935   -0.000114254   -0.000046133
  14   H   :    0.000002661    0.000010533   -0.000007398

Norm of the cartesian gradient     ...    0.000536446
RMS gradient                       ...    0.000082775
MAX gradient                       ...    0.000232228

-------
TIMINGS
-------

Total SCF gradient time            ...       26.357 sec

One electron gradient       ....       0.124 sec  (  0.5%)
Prescreening matrices       ....       0.396 sec  (  1.5%)
Two electron gradient       ....      22.509 sec  ( 85.4%)
XC gradient                 ....       2.088 sec  (  7.9%)
           ************************************************************
           *              Shut down parallel processing               *
           ************************************************************
------------------------------------------------------------------------------
                         ORCA GEOMETRY RELAXATION STEP
------------------------------------------------------------------------------

Reading the OPT-File                    .... done
Getting information on internals        .... done
Copying old internal coords+grads       .... done
Making the new internal coordinates     .... (new redundants).... done
Validating the new internal coordinates .... (new redundants).... done
Calculating the B-matrix                .... done
Calculating the G,G- and P matrices     .... done
Transforming gradient to internals      .... done
Projecting the internal gradient        .... done
Number of atoms                         ....  14
Number of internal coordinates          ....  64
Current Energy                          ....  -340.851135947 Eh
Current gradient norm                   ....     0.000536446 Eh/bohr
Maximum allowed component of the step   ....  0.300
Current trust radius                    ....  0.300
Evaluating the initial hessian          ....  (Almloef) done
Projecting the Hessian                  .... done
Forming the augmented Hessian           .... done
Diagonalizing the augmented Hessian     .... done
Last element of RFO vector              ....  0.999995180
Lowest eigenvalues of augmented Hessian:
 -0.000000611  0.012586478  0.014019682  0.023888809  0.032618639
Length of the computed step             ....  0.003104719
The final length of the internal step   ....  0.003104719
Converting the step to cartesian space:
 Initial RMS(Int)=    0.0003880899
Transforming coordinates:
 Iter   0:  RMS(Cart)=    0.0007002128 RMS(Int)=    0.0003881132
 Iter   1:  RMS(Cart)=    0.0000002727 RMS(Int)=    0.0000001329
 Iter   2:  RMS(Cart)=    0.0000000002 RMS(Int)=    0.0000000001
done
Storing new coordinates                 .... done

                                .--------------------.
          ----------------------|Geometry convergence|---------------------
          Item                value                 Tolerance   Converged
          -----------------------------------------------------------------
          RMS gradient        0.00005347            0.00003000      NO
          MAX gradient        0.00018809            0.00010000      NO
          RMS step            0.00038809            0.00060000      YES
          MAX step            0.00124305            0.00100000      NO
          ....................................................
          Max(Bonds)      0.0003      Max(Angles)    0.01
          Max(Dihed)        0.07      Max(Improp)    0.00
          -----------------------------------------------------------------

The optimization has not yet converged - more geometry cycles are needed


    ---------------------------------------------------------------------------
                         Redundant Internal Coordinates
                            (Angstroem and degrees)

        Definition                    Value    dE/dq     Step     New-Value
    ----------------------------------------------------------------------------
     1. B(C   1,N   0)                1.5023  0.000177 -0.0003    1.5020   
     2. B(C   2,C   1)                1.4881 -0.000076  0.0001    1.4881   
     3. B(C   3,C   2)                1.3486 -0.000003 -0.0000    1.3486   
     4. B(O   4,C   3)                1.3534 -0.000002 -0.0000    1.3534   
     5. B(C   5,O   4)                1.3336  0.000009 -0.0000    1.3336   
     6. B(N   6,C   5)                1.2902 -0.000098  0.0001    1.2903   
     7. B(N   6,C   2)                1.3806 -0.000084  0.0001    1.3806   
     8. B(H   7,N   0)                1.0197  0.000147 -0.0002    1.0195   
     9. B(H   8,N   0)                1.0404  0.000096 -0.0001    1.0403   
    10. B(H   9,N   0)                1.0209 -0.000060  0.0001    1.0210   
    11. B(H  10,C   1)                1.0924  0.000188 -0.0003    1.0921   
    12. B(H  11,C   1)                1.0888  0.000142 -0.0002    1.0886   
    13. B(H  12,C   3)                1.0768 -0.000126  0.0002    1.0770   
    14. B(H  13,C   5)                1.0791 -0.000011  0.0000    1.0791   
    15. A(C   1,N   0,H   9)          111.77 -0.000020    0.00    111.77   
    16. A(H   7,N   0,H   9)          108.63  0.000012    0.00    108.63   
    17. A(H   7,N   0,H   8)          110.84  0.000005   -0.00    110.84   
    18. A(C   1,N   0,H   8)          105.13  0.000022   -0.01    105.13   
    19. A(C   1,N   0,H   7)          113.06 -0.000027    0.01    113.07   
    20. A(H   8,N   0,H   9)          107.24  0.000010   -0.01    107.23   
    21. A(N   0,C   1,C   2)          105.66  0.000022   -0.00    105.66   
    22. A(H  10,C   1,H  11)          108.93  0.000030   -0.01    108.92   
    23. A(C   2,C   1,H  11)          114.02  0.000002   -0.00    114.02   
    24. A(N   0,C   1,H  11)          109.56 -0.000030    0.01    109.57   
    25. A(C   2,C   1,H  10)          111.78 -0.000012    0.00    111.79   
    26. A(N   0,C   1,H  10)          106.56 -0.000014    0.00    106.57   
    27. A(C   3,C   2,N   6)          109.04  0.000061   -0.01    109.03   
    28. A(C   1,C   2,N   6)          117.09 -0.000054    0.01    117.09   
    29. A(C   1,C   2,C   3)          133.84 -0.000007    0.00    133.84   
    30. A(C   2,C   3,O   4)          107.01 -0.000066    0.01    107.02   
    31. A(O   4,C   3,H  12)          117.38  0.000037   -0.00    117.37   
    32. A(C   2,C   3,H  12)          135.61  0.000030   -0.00    135.60   
    33. A(C   3,O   4,C   5)          105.88 -0.000001   -0.00    105.88   
    34. A(O   4,C   5,N   6)          113.54  0.000021   -0.00    113.54   
    35. A(N   6,C   5,H  13)          128.59 -0.000014    0.00    128.59   
    36. A(O   4,C   5,H  13)          117.87 -0.000007    0.00    117.87   
    37. A(C   2,N   6,C   5)          104.53 -0.000014    0.00    104.53   
    38. D(H  11,C   1,N   0,H   7)    -83.59 -0.000001    0.02    -83.57   
    39. D(H  10,C   1,N   0,H   7)     34.11  0.000011    0.01     34.12   
    40. D(H  11,C   1,N   0,H   9)     39.35 -0.000021    0.03     39.38   
    41. D(H  11,C   1,N   0,H   8)    155.36 -0.000006    0.02    155.39   
    42. D(H  10,C   1,N   0,H   9)    157.06 -0.000009    0.02    157.08   
    43. D(C   2,C   1,N   0,H   7)    153.15  0.000001    0.02    153.17   
    44. D(C   2,C   1,N   0,H   9)    -83.90 -0.000019    0.03    -83.87   
    45. D(H  10,C   1,N   0,H   8)    -86.93  0.000005    0.02    -86.92   
    46. D(C   2,C   1,N   0,H   8)     32.11 -0.000005    0.02     32.13   
    47. D(N   6,C   2,C   1,H  10)     86.69  0.000004   -0.06     86.64   
    48. D(N   6,C   2,C   1,N   0)    -28.83  0.000014   -0.06    -28.89   
    49. D(C   3,C   2,C   1,H  11)     33.33  0.000027   -0.06     33.27   
    50. D(C   3,C   2,C   1,H  10)    -90.77 -0.000004   -0.04    -90.81   
    51. D(N   6,C   2,C   1,H  11)   -149.21  0.000035   -0.07   -149.28   
    52. D(C   3,C   2,C   1,N   0)    153.71  0.000006   -0.05    153.66   
    53. D(H  12,C   3,C   2,N   6)   -179.72  0.000001   -0.00   -179.72   
    54. D(H  12,C   3,C   2,C   1)     -2.11  0.000006   -0.01     -2.13   
    55. D(O   4,C   3,C   2,N   6)     -0.44  0.000012   -0.02     -0.46   
    56. D(O   4,C   3,C   2,C   1)    177.17  0.000017   -0.03    177.13   
    57. D(C   5,O   4,C   3,H  12)    179.90 -0.000009    0.01    179.92   
    58. D(C   5,O   4,C   3,C   2)      0.47 -0.000018    0.03      0.50   
    59. D(H  13,C   5,O   4,C   3)    179.36  0.000003   -0.01    179.35   
    60. D(N   6,C   5,O   4,C   3)     -0.35  0.000017   -0.03     -0.38   
    61. D(C   2,N   6,C   5,H  13)   -179.59  0.000007   -0.01   -179.60   
    62. D(C   2,N   6,C   5,O   4)      0.08 -0.000010    0.02      0.09   
    63. D(C   5,N   6,C   2,C   3)      0.23 -0.000001    0.00      0.23   
    64. D(C   5,N   6,C   2,C   1)   -177.83 -0.000006    0.01   -177.82   
    ----------------------------------------------------------------------------

         *************************************************************
         *                GEOMETRY OPTIMIZATION CYCLE   2            *
         *************************************************************
---------------------------------
CARTESIAN COORDINATES (ANGSTROEM)
---------------------------------
  N      0.418948    0.000362   -2.395768
  C     -0.515790    0.785904   -1.520944
  C     -0.231723    0.342105   -0.129210
  C     -0.366419    0.920606    1.081560
  O     -0.000012    0.000025    2.003475
  C      0.349608   -1.087042    1.314559
  N      0.232620   -0.947419    0.037191
  H      0.064143   -0.131336   -3.342406
  H      0.537199   -0.914204   -1.914325
  H      1.341280    0.434765   -2.450622
  H     -1.528924    0.521919   -1.831751
  H     -0.361981    1.850725   -1.686648
  H     -0.688842    1.882433    1.443234
  H      0.689429   -1.948065    1.869198

----------------------------
CARTESIAN COORDINATES (A.U.)
----------------------------
  NO LB      ZA    FRAG    MASS        X           Y           Z
   0 N     7.0000    0    14.007          0.791697410640100          0.000684193629621         -4.527345522636379
   1 C     6.0000    0    12.011         -0.974701072636635          1.485143310563720         -2.874167623475100
   2 C     6.0000    0    12.011         -0.437892765619249          0.646485276588811         -0.244171596011952
   3 C     6.0000    0    12.011         -0.692431108011561          1.739692926942983          2.043853128821501
   4 O     8.0000    0    15.999         -0.000022592303942          0.000047901481140          3.786019784727484
   5 C     6.0000    0    12.011          0.660664295808347         -2.054212155428883          2.484157337256400
   6 N     7.0000    0    14.007          0.439588445466279         -1.790362175344859          0.070281261590335
   7 H     1.0000    0     1.008          0.121212945306563         -0.248189616634400         -6.316231044383201
   8 H     1.0000    0     1.008          1.015158886420582         -1.727595274894884         -3.617550910704098
   9 H     1.0000    0     1.008          2.534652499354543          0.821587379570305         -4.631003762171470
  10 H     1.0000    0     1.008         -2.889248285089530          0.986284351596735         -3.461507516457778
  11 H     1.0000    0     1.008         -0.684045458730813          3.497364201385034         -3.187302541709116
  12 H     1.0000    0     1.008         -1.301722321322291          3.557282988891683          2.727317596997203
  13 H     1.0000    0     1.008          1.302832495096405         -3.681308588730163          3.532271661836714

--------------------------------
INTERNAL COORDINATES (ANGSTROEM)
--------------------------------
 N      0   0   0   0.000000     0.000     0.000
 C      1   0   0   1.502041     0.000     0.000
 C      2   1   0   1.488145   105.660     0.000
 C      3   2   1   1.348618   133.839   153.662
 O      4   3   2   1.353384   107.022   177.133
 C      5   4   3   1.333625   105.875     0.499
 N      6   5   4   1.290291   113.542   359.623
 H      1   2   3   1.019487   113.066   153.170
 H      1   2   3   1.040289   105.128    32.131
 H      1   2   3   1.020986   111.775   276.127
 H      2   1   3   1.092122   106.567   240.952
 H      2   1   3   1.088558   109.572   123.257
 H      4   3   2   1.076975   135.602   357.874
 H      6   5   4   1.079102   117.868   179.349

---------------------------
INTERNAL COORDINATES (A.U.)
---------------------------
 N      0   0   0   0.000000     0.000     0.000
 C      1   0   0   2.838447     0.000     0.000
 C      2   1   0   2.812186   105.660     0.000
 C      3   2   1   2.548519   133.839   153.662
 O      4   3   2   2.557526   107.022   177.133
 C      5   4   3   2.520186   105.875     0.499
 N      6   5   4   2.438296   113.542   359.623
 H      1   2   3   1.926551   113.066   153.170
 H      1   2   3   1.965861   105.128    32.131
 H      1   2   3   1.929383   111.775   276.127
 H      2   1   3   2.063812   106.567   240.952
 H      2   1   3   2.057077   109.572   123.257
 H      4   3   2   2.035189   135.602   357.874
 H      6   5   4   2.039207   117.868   179.349



           ************************************************************
           *        Program running with 8 parallel MPI-processes     *
           *              working on a common directory               *
           ************************************************************
           ************************************************************
           *              Shut down parallel processing               *
           ************************************************************


           ************************************************************
           *        Program running with 8 parallel MPI-processes     *
           *              working on a common directory               *
           ************************************************************

Diagonalization of the overlap matrix:
Smallest eigenvalue                        ... 8.498e-05
Time for diagonalization                   ...    0.315 sec
Threshold for overlap eigenvalues          ... 1.000e-08
Number of eigenvalues below threshold      ... 0
Time for construction of square roots      ...    0.025 sec
Total time needed                          ...    0.340 sec

-------------------
DFT GRID GENERATION
-------------------

General Integration Accuracy     IntAcc      ...  4.340
Radial Grid Type                 RadialGrid  ... Gauss-Chebyshev
Angular Grid (max. acc.)         AngularGrid ... Lebedev-194
Angular grid pruning method      GridPruning ... 3 (G Style)
Weight generation scheme         WeightScheme... Becke
Basis function cutoff            BFCut       ...    1.0000e-11
Integration weight cutoff        WCut        ...    1.0000e-14
Grids for H and He will be reduced by one unit

# of grid points (after initial pruning)     ...  33832 (   0.0 sec)
# of grid points (after weights+screening)   ...  31435 (   0.1 sec)
nearest neighbour list constructed           ...    0.0 sec
Grid point re-assignment to atoms done       ...    0.0 sec
Grid point division into batches done        ...    0.1 sec
Reduced shell lists constructed in    0.1 sec

Total number of grid points                  ...    31435
Total number of batches                      ...      498
Average number of points per batch           ...       63
Average number of grid points per atom       ...     2245
Average number of shells per batch           ...    82.97 (79.02%)
Average number of basis functions per batch  ...   210.56 (81.30%)
Average number of large shells per batch     ...    69.75 (84.07%)
Average number of large basis fcns per batch ...   175.03 (83.13%)
Maximum spatial batch extension              ...   2.79,  3.00,  2.86 au
Average spatial batch extension              ...   0.15,  0.15,  0.15 au

Time for grid setup =    0.477 sec

--------------
SCF ITERATIONS
--------------
ITER       Energy         Delta-E        Max-DP      RMS-DP      [F,P]     Damp
               ***  Starting incremental Fock matrix formation  ***
                      *** Initiating the SOSCF procedure ***
                      *** Re-Reading the Fockian *** 
                      *** Removing any level shift *** 
ITER      Energy       Delta-E        Grad      Rot      Max-DP    RMS-DP
  0   -340.85149325 -340.8514932538  0.000059  0.000059  0.000097  0.000004
               *** Restarting incremental Fock matrix formation ***
  1   -340.85149375  -0.0000004989  0.000029  0.000078  0.000045  0.000002
  2   -340.85149380  -0.0000000511  0.000021  0.000049  0.000043  0.000001
  3   -340.85149381  -0.0000000045  0.000023  0.000031  0.000021  0.000001
  4   -340.85149382  -0.0000000084  0.000007  0.000014  0.000009  0.000000
  5   -340.85149382   0.0000000001  0.000006  0.000009  0.000006  0.000000
                  ***Gradient check signals convergence***
              ***Rediagonalizing the Fockian in SOSCF/NRSCF***

               *****************************************************
               *                     SUCCESS                       *
               *           SCF CONVERGED AFTER   6 CYCLES          *
               *****************************************************

Setting up the final grid:

General Integration Accuracy     IntAcc      ...  5.010
Radial Grid Type                 RadialGrid  ... Gauss-Chebyshev
Angular Grid (max. acc.)         AngularGrid ... Lebedev-434
Angular grid pruning method      GridPruning ... 3 (G Style)
Weight generation scheme         WeightScheme... Becke
Basis function cutoff            BFCut       ...    1.0000e-11
Integration weight cutoff        WCut        ...    1.0000e-14
Grids for H and He will be reduced by one unit

# of grid points (after initial pruning)     ... 121658 (   0.0 sec)
# of grid points (after weights+screening)   ... 111979 (   1.4 sec)
nearest neighbour list constructed           ...    0.0 sec
Grid point re-assignment to atoms done       ...    0.0 sec
Grid point division into batches done        ...    0.8 sec
Reduced shell lists constructed in    1.0 sec

Total number of grid points                  ...   111979
Total number of batches                      ...     1757
Average number of points per batch           ...       63
Average number of grid points per atom       ...     7998
Average number of shells per batch           ...    82.29 (78.37%)
Average number of basis functions per batch  ...   208.34 (80.44%)
Average number of large shells per batch     ...    69.15 (84.03%)
Average number of large basis fcns per batch ...   173.74 (83.39%)
Maximum spatial batch extension              ...   3.03,  2.09,  2.44 au
Average spatial batch extension              ...   0.11,  0.10,  0.10 au

Final grid set up in    2.9 sec
Final integration                            ... done (   0.8 sec)
Change in XC energy                          ...     0.000357543
Integrated number of electrons               ...    51.999998712
Previous integrated no of electrons          ...    52.000347463
Total Energy       :         -340.85113628 Eh           -9275.03095 eV
  Last Energy change         ...   -1.0438e-09  Tolerance :   1.0000e-08
  Last MAX-Density change    ...    2.1077e-06  Tolerance :   1.0000e-07
             **** THE GBW FILE WAS UPDATED (6209_+.gbw) ****
             **** DENSITY FILE WAS UPDATED (6209_+.scfp.tmp) ****
             **** ENERGY FILE WAS UPDATED (6209_+.en.tmp) ****
Total SCF time: 0 days 0 hours 0 min 36 sec 
           ************************************************************
           *              Shut down parallel processing               *
           ************************************************************

-------------------------   --------------------
FINAL SINGLE POINT ENERGY      -340.851136275246
-------------------------   --------------------



           ************************************************************
           *        Program running with 8 parallel MPI-processes     *
           *              working on a common directory               *
           ************************************************************
------------------------------------------------------------------------------
                         ORCA SCF GRADIENT CALCULATION
------------------------------------------------------------------------------

Gradient of the Kohn-Sham DFT energy:
Kohn-Sham wavefunction type      ... RKS
Hartree-Fock exchange scaling    ...    0.250
Number of operators              ...    1
Number of atoms                  ...   14
Basis set dimensions             ...  259
Integral neglect threshold       ... 2.5e-11
Integral primitive cutoff        ... 2.5e-12

Nuclear repulsion gradient       ... done
One Electron Gradient            ... done
Pre-screening matrix             ... done
Starting the two electron gradient:
Two electron gradient done
Exchange-correlation gradient    ... done

------------------
CARTESIAN GRADIENT
------------------

   1   N   :    0.000047299   -0.000050218   -0.000056409
   2   C   :   -0.000077550    0.000042392    0.000048446
   3   C   :    0.000006170   -0.000051316   -0.000009076
   4   C   :    0.000004483    0.000048715   -0.000008127
   5   O   :   -0.000013811   -0.000046455    0.000000388
   6   C   :    0.000023464    0.000013346    0.000003807
   7   N   :   -0.000004116    0.000023761    0.000018907
   8   H   :   -0.000011405    0.000011428    0.000015132
   9   H   :    0.000001239    0.000006241    0.000020202
  10   H   :   -0.000013389    0.000020076   -0.000008747
  11   H   :   -0.000001066   -0.000007372   -0.000010480
  12   H   :    0.000044433   -0.000009386   -0.000014142
  13   H   :   -0.000007648   -0.000002581   -0.000003393
  14   H   :    0.000001899    0.000001369    0.000003493

Norm of the cartesian gradient     ...    0.000177376
RMS gradient                       ...    0.000027370
MAX gradient                       ...    0.000077550

-------
TIMINGS
-------

Total SCF gradient time            ...       27.695 sec

One electron gradient       ....       0.125 sec  (  0.5%)
Prescreening matrices       ....       0.368 sec  (  1.3%)
Two electron gradient       ....      23.757 sec  ( 85.8%)
XC gradient                 ....       2.322 sec  (  8.4%)
           ************************************************************
           *              Shut down parallel processing               *
           ************************************************************
------------------------------------------------------------------------------
                         ORCA GEOMETRY RELAXATION STEP
------------------------------------------------------------------------------

Reading the OPT-File                    .... done
Getting information on internals        .... done
Copying old internal coords+grads       .... done
Making the new internal coordinates     .... (new redundants).... done
Validating the new internal coordinates .... (new redundants).... done
Calculating the B-matrix                .... done
Calculating the G,G- and P matrices     .... done
Transforming gradient to internals      .... done
Projecting the internal gradient        .... done
Number of atoms                         ....  14
Number of internal coordinates          ....  64
Current Energy                          ....  -340.851136275 Eh
Current gradient norm                   ....     0.000177376 Eh/bohr
Maximum allowed component of the step   ....  0.300
Current trust radius                    ....  0.300
Updating the Hessian (BFGS)             .... done
Forming the augmented Hessian           .... done
Diagonalizing the augmented Hessian     .... done
Last element of RFO vector              ....  0.999995486
Lowest eigenvalues of augmented Hessian:
 -0.000000137  0.010447637  0.013327181  0.023835681  0.033252802
Length of the computed step             ....  0.003004544
The final length of the internal step   ....  0.003004544
Converting the step to cartesian space:
 Initial RMS(Int)=    0.0003755680
Transforming coordinates:
 Iter   0:  RMS(Cart)=    0.0005834316 RMS(Int)=    0.0003755680
 Iter   1:  RMS(Cart)=    0.0000001768 RMS(Int)=    0.0000001100
 Iter   2:  RMS(Cart)=    0.0000000001 RMS(Int)=    0.0000000001
done
Storing new coordinates                 .... done

                                .--------------------.
          ----------------------|Geometry convergence|---------------------
          Item                value                 Tolerance   Converged
          -----------------------------------------------------------------
          Energy change      -0.00000033            0.00000100      YES
          RMS gradient        0.00001269            0.00003000      YES
          MAX gradient        0.00003792            0.00010000      YES
          RMS step            0.00037557            0.00060000      YES
          MAX step            0.00105513            0.00100000      NO
          ....................................................
          Max(Bonds)      0.0001      Max(Angles)    0.01
          Max(Dihed)        0.06      Max(Improp)    0.00
          -----------------------------------------------------------------

       The energies and gradients are converged
       and the convergence on bond distances, angles, dihedrals and impropers
       is acceptable.
       Convergence will therefore be signaled now


                    ***********************HURRAY********************
                    ***        THE OPTIMIZATION HAS CONVERGED     ***
                    *************************************************


    ---------------------------------------------------------------------------
                         Redundant Internal Coordinates

                          --- Optimized Parameters ---  
                            (Angstroem and degrees)

        Definition                    OldVal   dE/dq     Step     FinalVal
    ----------------------------------------------------------------------------
     1. B(C   1,N   0)                1.5020  0.000038 -0.0001    1.5019   
     2. B(C   2,C   1)                1.4881  0.000012  0.0000    1.4881   
     3. B(C   3,C   2)                1.3486  0.000008 -0.0000    1.3486   
     4. B(O   4,C   3)                1.3534  0.000028 -0.0000    1.3534   
     5. B(C   5,O   4)                1.3336 -0.000017  0.0000    1.3336   
     6. B(N   6,C   5)                1.2903 -0.000005  0.0000    1.2903   
     7. B(N   6,C   2)                1.3806 -0.000013  0.0000    1.3807   
     8. B(H   7,N   0)                1.0195 -0.000012 -0.0000    1.0195   
     9. B(H   8,N   0)                1.0403  0.000004 -0.0000    1.0403   
    10. B(H   9,N   0)                1.0210 -0.000003  0.0000    1.0210   
    11. B(H  10,C   1)                1.0921  0.000004 -0.0001    1.0921   
    12. B(H  11,C   1)                1.0886  0.000001 -0.0000    1.0885   
    13. B(H  12,C   3)                1.0770 -0.000002  0.0000    1.0770   
    14. B(H  13,C   5)                1.0791  0.000002  0.0000    1.0791   
    15. A(C   1,N   0,H   9)          111.77 -0.000012    0.00    111.78   
    16. A(H   7,N   0,H   9)          108.63  0.000012    0.00    108.63   
    17. A(H   7,N   0,H   8)          110.84  0.000021   -0.01    110.83   
    18. A(C   1,N   0,H   8)          105.13 -0.000013    0.00    105.13   
    19. A(C   1,N   0,H   7)          113.07 -0.000021    0.01    113.07   
    20. A(H   8,N   0,H   9)          107.23  0.000015   -0.01    107.23   
    21. A(N   0,C   1,C   2)          105.66  0.000020   -0.00    105.66   
    22. A(H  10,C   1,H  11)          108.92  0.000016   -0.01    108.91   
    23. A(C   2,C   1,H  11)          114.02  0.000008   -0.00    114.02   
    24. A(N   0,C   1,H  11)          109.57 -0.000033    0.01    109.58   
    25. A(C   2,C   1,H  10)          111.79 -0.000003   -0.00    111.79   
    26. A(N   0,C   1,H  10)          106.57 -0.000011    0.00    106.57   
    27. A(C   3,C   2,N   6)          109.03 -0.000002   -0.00    109.03   
    28. A(C   1,C   2,N   6)          117.09  0.000021   -0.00    117.09   
    29. A(C   1,C   2,C   3)          133.84 -0.000019    0.00    133.84   
    30. A(C   2,C   3,O   4)          107.02 -0.000013    0.00    107.03   
    31. A(O   4,C   3,H  12)          117.37  0.000009   -0.00    117.37   
    32. A(C   2,C   3,H  12)          135.60  0.000004   -0.00    135.60   
    33. A(C   3,O   4,C   5)          105.88  0.000005   -0.00    105.87   
    34. A(O   4,C   5,N   6)          113.54 -0.000005    0.00    113.54   
    35. A(N   6,C   5,H  13)          128.59  0.000004   -0.00    128.59   
    36. A(O   4,C   5,H  13)          117.87  0.000001   -0.00    117.87   
    37. A(C   2,N   6,C   5)          104.53  0.000015   -0.00    104.53   
    38. D(H  11,C   1,N   0,H   7)    -83.57  0.000000    0.04    -83.54   
    39. D(H  10,C   1,N   0,H   7)     34.12 -0.000003    0.03     34.16   
    40. D(H  11,C   1,N   0,H   9)     39.38 -0.000009    0.04     39.43   
    41. D(H  11,C   1,N   0,H   8)    155.39 -0.000004    0.04    155.43   
    42. D(H  10,C   1,N   0,H   9)    157.08 -0.000013    0.04    157.12   
    43. D(C   2,C   1,N   0,H   7)    153.17 -0.000002    0.03    153.20   
    44. D(C   2,C   1,N   0,H   9)    -83.87 -0.000011    0.04    -83.83   
    45. D(H  10,C   1,N   0,H   8)    -86.92 -0.000008    0.04    -86.88   
    46. D(C   2,C   1,N   0,H   8)     32.13 -0.000007    0.04     32.17   
    47. D(N   6,C   2,C   1,H  10)     86.64 -0.000002   -0.04     86.59   
    48. D(N   6,C   2,C   1,N   0)    -28.89  0.000001   -0.05    -28.94   
    49. D(C   3,C   2,C   1,H  11)     33.27  0.000024   -0.05     33.22   
    50. D(C   3,C   2,C   1,H  10)    -90.81 -0.000002   -0.04    -90.85   
    51. D(N   6,C   2,C   1,H  11)   -149.28  0.000024   -0.06   -149.34   
    52. D(C   3,C   2,C   1,N   0)    153.66  0.000001   -0.04    153.62   
    53. D(H  12,C   3,C   2,N   6)   -179.72  0.000005   -0.01   -179.73   
    54. D(H  12,C   3,C   2,C   1)     -2.13  0.000006   -0.01     -2.14   
    55. D(O   4,C   3,C   2,N   6)     -0.46 -0.000008    0.01     -0.45   
    56. D(O   4,C   3,C   2,C   1)    177.13 -0.000008    0.01    177.14   
    57. D(C   5,O   4,C   3,H  12)    179.92  0.000002   -0.00    179.91   
    58. D(C   5,O   4,C   3,C   2)      0.50  0.000013   -0.02      0.48   
    59. D(H  13,C   5,O   4,C   3)    179.35 -0.000002    0.00    179.35   
    60. D(N   6,C   5,O   4,C   3)     -0.38 -0.000014    0.02     -0.36   
    61. D(C   2,N   6,C   5,H  13)   -179.60 -0.000004    0.01   -179.59   
    62. D(C   2,N   6,C   5,O   4)      0.09  0.000008   -0.01      0.08   
    63. D(C   5,N   6,C   2,C   3)      0.23  0.000000   -0.00      0.23   
    64. D(C   5,N   6,C   2,C   1)   -177.82  0.000001    0.00   -177.82   
    ----------------------------------------------------------------------------
                 *******************************************************
                 *** FINAL ENERGY EVALUATION AT THE STATIONARY POINT ***
                 ***               (AFTER    2 CYCLES)               ***
                 *******************************************************


           ************************************************************
           *        Program running with 8 parallel MPI-processes     *
           *              working on a common directory               *
           ************************************************************
           ************************************************************
           *              Shut down parallel processing               *
           ************************************************************


           ************************************************************
           *        Program running with 8 parallel MPI-processes     *
           *              working on a common directory               *
           ************************************************************
------------
SCF SETTINGS
------------
Hamiltonian:
 Density Functional     Method          .... DFT(GTOs)
 Exchange Functional    Exchange        .... PBE
   PBE kappa parameter  XKappa          ....  0.804000
 Correlation Functional Correlation     .... PBE
 LDA part of GGA corr.  LDAOpt          .... PW91-LDA
 Gradients option       PostSCFGGA      .... off
 Hybrid DFT is turned on
   Fraction HF Exchange ScalHFX         ....  0.250000
   Scaling of DF-GGA-X  ScalDFX         ....  0.750000
   Scaling of DF-GGA-C  ScalDFC         ....  1.000000
   Scaling of DF-LDA-C  ScalLDAC        ....  1.000000
   Perturbative correction              ....  0.000000
   NL short-range parameter             ....  6.900000


General Settings:
 Integral files         IntName         .... 6209_+
 Hartree-Fock type      HFTyp           .... RHF
 Total Charge           Charge          ....    1
 Multiplicity           Mult            ....    1
 Number of Electrons    NEL             ....   52
 Basis Dimension        Dim             ....  259
 Nuclear Repulsion      ENuc            ....    307.6745904391 Eh

Convergence Acceleration:
 DIIS                   CNVDIIS         .... on
   Start iteration      DIISMaxIt       ....    12
   Startup error        DIISStart       ....  0.200000
   # of expansion vecs  DIISMaxEq       ....     5
   Bias factor          DIISBfac        ....   1.050
   Max. coefficient     DIISMaxC        ....  10.000
 Newton-Raphson         CNVNR           .... off
 SOSCF                  CNVSOSCF        .... on
   Start iteration      SOSCFMaxIt      ....   150
   Startup grad/error   SOSCFStart      ....  0.003300
 Level Shifting         CNVShift        .... on
   Level shift para.    LevelShift      ....    0.2500
   Turn off err/grad.   ShiftErr        ....    0.0010
 Zerner damping         CNVZerner       .... off
 Static damping         CNVDamp         .... on
   Fraction old density DampFac         ....    0.7000
   Max. Damping (<1)    DampMax         ....    0.9800
   Min. Damping (>=0)   DampMin         ....    0.0000
   Turn off err/grad.   DampErr         ....    0.1000
 Fernandez-Rico         CNVRico         .... off

SCF Procedure:
 Maximum # iterations   MaxIter         ....   125
 SCF integral mode      SCFMode         .... Direct
   Integral package                     .... LIBINT
 Reset frequeny         DirectResetFreq ....    20
 Integral Threshold     Thresh          ....  2.500e-11 Eh
 Primitive CutOff       TCut            ....  2.500e-12 Eh

Convergence Tolerance:
 Convergence Check Mode ConvCheckMode   .... Total+1el-Energy
 Energy Change          TolE            ....  1.000e-08 Eh
 1-El. energy change                    ....  1.000e-05 Eh
 Orbital Gradient       TolG            ....  1.000e-05
 Orbital Rotation angle TolX            ....  1.000e-05
 DIIS Error             TolErr          ....  5.000e-07


Diagonalization of the overlap matrix:
Smallest eigenvalue                        ... 8.498e-05
Time for diagonalization                   ...    0.286 sec
Threshold for overlap eigenvalues          ... 1.000e-08
Number of eigenvalues below threshold      ... 0
Time for construction of square roots      ...    0.024 sec
Total time needed                          ...    0.310 sec

-------------------
DFT GRID GENERATION
-------------------

General Integration Accuracy     IntAcc      ...  4.340
Radial Grid Type                 RadialGrid  ... Gauss-Chebyshev
Angular Grid (max. acc.)         AngularGrid ... Lebedev-194
Angular grid pruning method      GridPruning ... 3 (G Style)
Weight generation scheme         WeightScheme... Becke
Basis function cutoff            BFCut       ...    1.0000e-11
Integration weight cutoff        WCut        ...    1.0000e-14
Grids for H and He will be reduced by one unit

# of grid points (after initial pruning)     ...  33832 (   0.0 sec)
# of grid points (after weights+screening)   ...  31436 (   0.2 sec)
nearest neighbour list constructed           ...    0.0 sec
Grid point re-assignment to atoms done       ...    0.0 sec
Grid point division into batches done        ...    0.1 sec
Reduced shell lists constructed in    0.2 sec

Total number of grid points                  ...    31436
Total number of batches                      ...      499
Average number of points per batch           ...       62
Average number of grid points per atom       ...     2245
Average number of shells per batch           ...    82.94 (78.99%)
Average number of basis functions per batch  ...   210.56 (81.30%)
Average number of large shells per batch     ...    69.77 (84.12%)
Average number of large basis fcns per batch ...   174.98 (83.10%)
Maximum spatial batch extension              ...   2.79,  3.00,  2.86 au
Average spatial batch extension              ...   0.15,  0.15,  0.15 au

Time for grid setup =    0.578 sec

--------------
SCF ITERATIONS
--------------
ITER       Energy         Delta-E        Max-DP      RMS-DP      [F,P]     Damp
               ***  Starting incremental Fock matrix formation  ***
                      *** Initiating the SOSCF procedure ***
                      *** Re-Reading the Fockian *** 
                      *** Removing any level shift *** 
ITER      Energy       Delta-E        Grad      Rot      Max-DP    RMS-DP
  0   -340.85149345 -340.8514934478  0.000068  0.000068  0.000091  0.000003
               *** Restarting incremental Fock matrix formation ***
  1   -340.85149387  -0.0000004183  0.000027  0.000075  0.000037  0.000001
  2   -340.85149392  -0.0000000503  0.000011  0.000035  0.000029  0.000001
  3   -340.85149391   0.0000000041  0.000022  0.000023  0.000018  0.000000
                  ***Gradient check signals convergence***
              ***Rediagonalizing the Fockian in SOSCF/NRSCF***

               *****************************************************
               *                     SUCCESS                       *
               *           SCF CONVERGED AFTER   4 CYCLES          *
               *****************************************************

Setting up the final grid:

General Integration Accuracy     IntAcc      ...  5.010
Radial Grid Type                 RadialGrid  ... Gauss-Chebyshev
Angular Grid (max. acc.)         AngularGrid ... Lebedev-434
Angular grid pruning method      GridPruning ... 3 (G Style)
Weight generation scheme         WeightScheme... Becke
Basis function cutoff            BFCut       ...    1.0000e-11
Integration weight cutoff        WCut        ...    1.0000e-14
Grids for H and He will be reduced by one unit

# of grid points (after initial pruning)     ... 121658 (   0.0 sec)
# of grid points (after weights+screening)   ... 111981 (   0.4 sec)
nearest neighbour list constructed           ...    0.0 sec
Grid point re-assignment to atoms done       ...    0.0 sec
Grid point division into batches done        ...    0.8 sec
Reduced shell lists constructed in    1.0 sec

Total number of grid points                  ...   111981
Total number of batches                      ...     1757
Average number of points per batch           ...       63
Average number of grid points per atom       ...     7999
Average number of shells per batch           ...    82.28 (78.36%)
Average number of basis functions per batch  ...   208.32 (80.43%)
Average number of large shells per batch     ...    69.17 (84.06%)
Average number of large basis fcns per batch ...   173.83 (83.44%)
Maximum spatial batch extension              ...   3.03,  2.09,  2.44 au
Average spatial batch extension              ...   0.11,  0.10,  0.10 au

Final grid set up in    2.3 sec
Final integration                            ... done (   0.8 sec)
Change in XC energy                          ...     0.000357564
Integrated number of electrons               ...    51.999998613
Previous integrated no of electrons          ...    52.000346430
Total Energy       :         -340.85113636 Eh           -9275.03095 eV
  Last Energy change         ...   -7.7034e-09  Tolerance :   1.0000e-08
  Last MAX-Density change    ...    4.0332e-06  Tolerance :   1.0000e-07
             **** THE GBW FILE WAS UPDATED (6209_+.gbw) ****
             **** DENSITY FILE WAS UPDATED (6209_+.scfp.tmp) ****
             **** ENERGY FILE WAS UPDATED (6209_+.en.tmp) ****
Total SCF time: 0 days 0 hours 0 min 29 sec 
           ************************************************************
           *              Shut down parallel processing               *
           ************************************************************

-------------------------   --------------------
FINAL SINGLE POINT ENERGY      -340.851136355869
-------------------------   --------------------

                                *** OPTIMIZATION RUN DONE ***

                            ***************************************
                            *     ORCA property calculations      *
                            ***************************************

                                    ---------------------
                                    Active property flags
                                    ---------------------




           ************************************************************
           *        Program running with 8 parallel MPI-processes     *
           *              working on a common directory               *
           ************************************************************

-------------------------------------------------------------------------------
                               ORCA SCF HESSIAN
-------------------------------------------------------------------------------

Hessian of the Kohn-Sham DFT energy:
Kohn-Sham wavefunction type                      ... RKS
Hartree-Fock exchange scaling                    ...    0.250
Number of operators                              ...    1
Number of atoms                                  ...   14
Basis set dimensions                             ...  259
Integral neglect threshold                       ... 2.5e-11
Integral primitive cutoff                        ... 2.5e-12

Setting up DFT Hessian calculations              ... 
Electron density on the grid                     ... found on disk
Electron density on the final grid               ... found on disk
Building xc-kernel on the grid                   ... done   (      0.0 sec)
Building xc-kernel on the final grid             ... done   (      0.1 sec)
                                                     done   (      3.0 sec)

Nuclear repulsion Hessian                        ... done   (      0.0 sec)

----------------------------------------------
Forming right-hand sides of CP-SCF equations     ...
----------------------------------------------
One electron integral derivatives                ... done   (      0.3 sec)
Transforming the overlap derivative matrices     ... done   (      0.4 sec)
Making the Q(x) pseudodensities                  ... done   (      0.2 sec)
Adding the E*S(x)*S(y) terms to the Hessian      ... done   (      0.0 sec)
Calculating energy weighted overlap derivatives  ... done   (      0.0 sec)
Two electron integral derivatives                ... done   (     39.3 sec)
Exchange-correlation integral derivatives        ... done   (     36.2 sec)
tr(F(y)Q(x)) contribution to the Hessian         ... done   (      0.0 sec)
Response fock operator R(S(x))                   ... done   (     99.8 sec)
XC Response fock operator R(S(x))                ... done   (     15.4 sec)
tr(F(y)S(x)) contribution to the Hessian         ... done   (      0.0 sec)
Transforming and finalizing RHSs                 ... done   (      0.1 sec)

----------------------------------------------
Solving the CP-SCF equations                     ...
----------------------------------------------
     CP-SCF ITERATION   0: 
     CP-SCF ITERATION   1:      0.001239726
     CP-SCF ITERATION   2:      0.000127597
     CP-SCF ITERATION   3:      0.000011174
     CP-SCF ITERATION   4:      0.000001034
     CP-SCF ITERATION   5:      0.000000062
     CP-SCF ITERATION   6:      0.000000006

                                                 ... done   (    873.8 sec)
Forming perturbed density Hessian contributions  ... done   (      0.1 sec)
Making the perturbed densities                   ... done   (      0.0 sec)
2nd integral derivative contribs                 ... done   (    179.9 sec)
Exchange-correlation Hessian                     ... done   (     19.2 sec)
Dipol derivatives                                ... done   (     12.8 sec)

Total SCF Hessian time: 0 days 0 hours 21 min 22 sec 

Writing the Hessian file to the disk             ... done

           ************************************************************
           *              Shut down parallel processing               *
           ************************************************************

-----------------------
VIBRATIONAL FREQUENCIES
-----------------------

   0:         0.00 cm**-1
   1:         0.00 cm**-1
   2:         0.00 cm**-1
   3:         0.00 cm**-1
   4:         0.00 cm**-1
   5:         0.00 cm**-1
   6:        81.53 cm**-1
   7:       215.21 cm**-1
   8:       246.50 cm**-1
   9:       307.45 cm**-1
  10:       464.48 cm**-1
  11:       636.54 cm**-1
  12:       664.77 cm**-1
  13:       718.29 cm**-1
  14:       826.20 cm**-1
  15:       893.04 cm**-1
  16:       899.71 cm**-1
  17:       951.79 cm**-1
  18:       955.19 cm**-1
  19:      1015.22 cm**-1
  20:      1092.60 cm**-1
  21:      1112.51 cm**-1
  22:      1125.07 cm**-1
  23:      1194.73 cm**-1
  24:      1252.21 cm**-1
  25:      1302.96 cm**-1
  26:      1327.04 cm**-1
  27:      1369.24 cm**-1
  28:      1403.82 cm**-1
  29:      1486.00 cm**-1
  30:      1493.84 cm**-1
  31:      1577.28 cm**-1
  32:      1629.72 cm**-1
  33:      1662.98 cm**-1
  34:      1674.31 cm**-1
  35:      3095.33 cm**-1
  36:      3165.00 cm**-1
  37:      3193.49 cm**-1
  38:      3292.43 cm**-1
  39:      3306.56 cm**-1
  40:      3473.93 cm**-1
  41:      3535.88 cm**-1


------------
NORMAL MODES
------------

These modes are the cartesian displacements weighted by the diagonal matrix
M(i,i)=1/sqrt(m[i]) where m[i] is the mass of the displaced atom
Thus, these vectors are normalized but *not* orthogonal

                  0          1          2          3          4          5    
      0       0.000000   0.000000   0.000000   0.000000   0.000000   0.000000
      1       0.000000   0.000000   0.000000   0.000000   0.000000   0.000000
      2       0.000000   0.000000   0.000000   0.000000   0.000000   0.000000
      3       0.000000   0.000000   0.000000   0.000000   0.000000   0.000000
      4       0.000000   0.000000   0.000000   0.000000   0.000000   0.000000
      5       0.000000   0.000000   0.000000   0.000000   0.000000   0.000000
      6       0.000000   0.000000   0.000000   0.000000   0.000000   0.000000
      7       0.000000   0.000000   0.000000   0.000000   0.000000   0.000000
      8       0.000000   0.000000   0.000000   0.000000   0.000000   0.000000
      9       0.000000   0.000000   0.000000   0.000000   0.000000   0.000000
     10       0.000000   0.000000   0.000000   0.000000   0.000000   0.000000
     11       0.000000   0.000000   0.000000   0.000000   0.000000   0.000000
     12       0.000000   0.000000   0.000000   0.000000   0.000000   0.000000
     13       0.000000   0.000000   0.000000   0.000000   0.000000   0.000000
     14       0.000000   0.000000   0.000000   0.000000   0.000000   0.000000
     15       0.000000   0.000000   0.000000   0.000000   0.000000   0.000000
     16       0.000000   0.000000   0.000000   0.000000   0.000000   0.000000
     17       0.000000   0.000000   0.000000   0.000000   0.000000   0.000000
     18       0.000000   0.000000   0.000000   0.000000   0.000000   0.000000
     19       0.000000   0.000000   0.000000   0.000000   0.000000   0.000000
     20       0.000000   0.000000   0.000000   0.000000   0.000000   0.000000
     21       0.000000   0.000000   0.000000   0.000000   0.000000   0.000000
     22       0.000000   0.000000   0.000000   0.000000   0.000000   0.000000
     23       0.000000   0.000000   0.000000   0.000000   0.000000   0.000000
     24       0.000000   0.000000   0.000000   0.000000   0.000000   0.000000
     25       0.000000   0.000000   0.000000   0.000000   0.000000   0.000000
     26       0.000000   0.000000   0.000000   0.000000   0.000000   0.000000
     27       0.000000   0.000000   0.000000   0.000000   0.000000   0.000000
     28       0.000000   0.000000   0.000000   0.000000   0.000000   0.000000
     29       0.000000   0.000000   0.000000   0.000000   0.000000   0.000000
     30       0.000000   0.000000   0.000000   0.000000   0.000000   0.000000
     31       0.000000   0.000000   0.000000   0.000000   0.000000   0.000000
     32       0.000000   0.000000   0.000000   0.000000   0.000000   0.000000
     33       0.000000   0.000000   0.000000   0.000000   0.000000   0.000000
     34       0.000000   0.000000   0.000000   0.000000   0.000000   0.000000
     35       0.000000   0.000000   0.000000   0.000000   0.000000   0.000000
     36       0.000000   0.000000   0.000000   0.000000   0.000000   0.000000
     37       0.000000   0.000000   0.000000   0.000000   0.000000   0.000000
     38       0.000000   0.000000   0.000000   0.000000   0.000000   0.000000
     39       0.000000   0.000000   0.000000   0.000000   0.000000   0.000000
     40       0.000000   0.000000   0.000000   0.000000   0.000000   0.000000
     41       0.000000   0.000000   0.000000   0.000000   0.000000   0.000000
                  6          7          8          9         10         11    
      0       0.133477  -0.099926  -0.021952  -0.005466  -0.082463  -0.009910
      1       0.147943   0.106065  -0.017931  -0.071451   0.049057   0.006704
      2       0.018845  -0.204348   0.006371   0.088679   0.268603   0.031472
      3      -0.120978   0.004680   0.031164  -0.095661  -0.078744   0.054292
      4      -0.120067  -0.058783   0.035413  -0.078402   0.090097  -0.016180
      5      -0.007059   0.045633   0.002616  -0.018841   0.105739   0.073937
      6      -0.069032   0.209966  -0.051668   0.109091   0.080809   0.179451
      7      -0.066697  -0.046834  -0.036858   0.146147  -0.121151   0.048462
      8      -0.012101  -0.002729  -0.004474   0.007480  -0.084435   0.004943
      9       0.104743   0.062139  -0.053979   0.067002   0.076023  -0.219241
     10       0.033051   0.008414  -0.020850   0.048704   0.000140  -0.054516
     11      -0.040090  -0.044216  -0.012084   0.053314  -0.210239  -0.011981
     12       0.109440  -0.139614   0.024610  -0.053865  -0.073021   0.201462
     13       0.066836   0.025939   0.021835  -0.069633   0.056944   0.088475
     14      -0.012013   0.042820  -0.004776  -0.007759  -0.131297  -0.051489
     15      -0.052608  -0.078363   0.054319  -0.048924  -0.023990  -0.129549
     16      -0.014526  -0.014829   0.022741  -0.018487  -0.009459  -0.035450
     17       0.024109   0.121411   0.006181  -0.081159  -0.001845  -0.021719
     18      -0.161044   0.138012  -0.000694   0.068685   0.133981  -0.029599
     19      -0.096837  -0.059284  -0.017965   0.120160  -0.114913  -0.021460
     20       0.026872   0.092072   0.006038  -0.067177  -0.036712  -0.027754
     21       0.342868  -0.154179   0.208883   0.256561   0.050900  -0.090899
     22       0.315708   0.435981   0.449289   0.163211  -0.122915   0.040576
     23      -0.084638  -0.232569  -0.145551  -0.041559   0.246171   0.057725
     24       0.124943  -0.128113  -0.420031  -0.252646  -0.077479  -0.012442
     25       0.060081  -0.046847  -0.202372  -0.149923   0.116123  -0.012423
     26      -0.174680  -0.547251  -0.277776  -0.001025   0.442021  -0.006087
     27       0.102549  -0.063144   0.152489   0.082080  -0.089815  -0.003583
     28       0.253051   0.045841  -0.328257  -0.206255   0.068405  -0.013802
     29       0.308498  -0.108586   0.440554   0.462617   0.322128  -0.032616
     30      -0.029419  -0.021774   0.015650  -0.061101  -0.113581   0.045710
     31      -0.402578  -0.153514   0.177205  -0.394048   0.219585  -0.171374
     32      -0.068023   0.207008  -0.069530   0.129880   0.109698   0.231376
     33      -0.400708  -0.140300   0.178336  -0.355104   0.030611  -0.095177
     34      -0.076694  -0.035158   0.024218  -0.078169   0.100693  -0.011300
     35       0.017094   0.056863   0.058316  -0.251757   0.269351  -0.020619
     36       0.224836   0.039657  -0.087684   0.071863   0.106644  -0.687497
     37       0.088308   0.036078  -0.026785   0.019635   0.071945  -0.210709
     38      -0.079194  -0.136905  -0.026027   0.134900  -0.379361  -0.014777
     39      -0.076188  -0.209757   0.116692  -0.140639  -0.108792  -0.433840
     40      -0.004178  -0.009216   0.053627  -0.093380   0.038550  -0.132867
     41       0.055052   0.210899   0.015864  -0.141509   0.124895   0.012224
                 12         13         14         15         16         17    
      0      -0.003007   0.024001   0.005596   0.010456   0.008677  -0.085451
      1       0.006265  -0.026041  -0.011209   0.029460   0.017568   0.075319
      2      -0.028304  -0.002481  -0.006379   0.005619   0.002468   0.067222
      3      -0.105802   0.087124  -0.024987   0.062317   0.034547   0.105565
      4       0.075205  -0.164302  -0.027954   0.064308   0.037411  -0.094839
      5      -0.178906   0.213134   0.013234  -0.000144   0.002090  -0.109220
      6      -0.136870  -0.201942  -0.036464  -0.073022  -0.058141  -0.038992
      7      -0.034197  -0.085340  -0.015239  -0.020478  -0.018133   0.085852
      8      -0.043718   0.100555   0.007403  -0.001233   0.001926   0.016534
      9       0.015025  -0.013089   0.155645   0.026544   0.051457  -0.036690
     10      -0.060294   0.100462   0.063978  -0.002834   0.013517   0.123171
     11       0.016347   0.020556  -0.000770  -0.017513  -0.012104  -0.008248
     12       0.124351   0.019820  -0.015255   0.019086  -0.035693   0.012413
     13       0.013764   0.032875  -0.005562   0.005672  -0.013347  -0.093142
     14       0.071624  -0.082033  -0.001282  -0.006075  -0.001385  -0.354797
[...]
     28       0.230998  -0.150851   0.180782   0.280873  -0.161760  -0.005494
     29       0.017150  -0.074689  -0.223519   0.270374  -0.195722  -0.089773
     30       0.164643  -0.068038  -0.033869  -0.004413  -0.012884  -0.070428
     31      -0.095353   0.037570  -0.012435  -0.141360   0.118793   0.002235
     32      -0.102886   0.130012   0.005392   0.522844  -0.351641   0.174287
     33       0.199223  -0.050406  -0.009011  -0.107304   0.093312  -0.032557
     34      -0.197381   0.057246   0.032101   0.036186  -0.026361   0.052794
     35      -0.270873   0.532386  -0.436269  -0.364808   0.121434   0.184874
     36      -0.027194   0.052127   0.014910  -0.095217  -0.125831   0.031858
     37      -0.062885  -0.121169  -0.060950   0.136009   0.339534   0.023784
     38      -0.277680  -0.411018  -0.031385  -0.328036  -0.449284   0.495539
     39       0.018716   0.065828  -0.009197   0.032459   0.123452  -0.085101
     40      -0.076535  -0.259097   0.024167  -0.141429  -0.356548   0.236447
     41      -0.250561  -0.311933   0.084498  -0.119601  -0.310550  -0.144548
                 24         25         26         27         28         29    
      0       0.008297  -0.012428  -0.050208  -0.052668  -0.039680   0.056753
      1       0.021075  -0.036706  -0.081532   0.011568   0.024621  -0.050208
      2      -0.006807  -0.012513   0.014671  -0.041435  -0.019397  -0.064400
      3      -0.019874   0.051673   0.037628   0.036433  -0.003671   0.012156
      4      -0.021124  -0.034223   0.071186  -0.042530   0.006595  -0.029451
      5      -0.007291   0.024724  -0.041625   0.122128   0.152207   0.024677
      6       0.003194  -0.079668   0.051076  -0.072471   0.026806   0.005654
      7       0.022557   0.192624  -0.070661   0.245317  -0.048597  -0.005183
      8       0.066877  -0.130459   0.028460   0.006603  -0.021762   0.008163
      9       0.010598  -0.006328  -0.008580   0.034256  -0.016611   0.000904
     10      -0.025359   0.000679   0.025104  -0.107281   0.031941  -0.003642
     11       0.033747  -0.076066   0.047192  -0.003701  -0.084077  -0.004896
     12       0.026590   0.003706   0.004404   0.006133   0.002054  -0.001699
     13      -0.080596   0.007434  -0.014653  -0.023342   0.000515   0.004821
     14      -0.026176   0.091741  -0.017590  -0.057976   0.052574  -0.001470
     15      -0.007329   0.039217  -0.003396  -0.042882   0.019002   0.000263
     16       0.023127  -0.111979   0.009191   0.113173  -0.051081   0.004378
     17       0.007662   0.001917  -0.004763  -0.028573   0.012650   0.040500
     18      -0.015726   0.011441  -0.015164   0.056699  -0.021971  -0.002179
     19       0.036529  -0.036986   0.034198  -0.143615   0.053071  -0.001596
     20      -0.030059  -0.053308  -0.001113   0.119185  -0.050853  -0.029812
     21      -0.024366   0.030738   0.075988   0.160242   0.135134  -0.341589
     22      -0.018202   0.071951   0.161790  -0.162930  -0.186972   0.396166
     23       0.011639  -0.043572  -0.066799  -0.097688  -0.054383   0.039969
     24      -0.059516   0.056057   0.197116   0.040063   0.043843  -0.307378
     25       0.026985  -0.007221  -0.086142   0.078074   0.049090   0.173753
     26       0.033889   0.055146  -0.072231   0.061356  -0.011204   0.550301
     27       0.045713  -0.078106  -0.220917  -0.048728  -0.004042  -0.113414
     28      -0.061744   0.115357   0.282959   0.023652  -0.042729   0.313222
     29      -0.027239   0.082595   0.084334   0.151741   0.088189   0.197938
     30      -0.022067   0.029996   0.258676   0.247696   0.237612  -0.033583
     31       0.060288  -0.059328  -0.204248  -0.025625  -0.056713   0.249943
     32      -0.069573   0.132699  -0.519811  -0.579906  -0.592160  -0.085084
     33       0.093504  -0.122489  -0.346829  -0.029438   0.071757  -0.181599
     34      -0.057032   0.076339   0.208503  -0.057888  -0.111684  -0.025540
     35      -0.129209   0.587947   0.421897  -0.051123  -0.536236  -0.152828
     36      -0.098461   0.033939  -0.034649  -0.007209   0.049257   0.004156
     37       0.190524  -0.074267   0.086023  -0.017730  -0.086025  -0.011161
     38      -0.659890   0.166570  -0.122070  -0.335785   0.292993   0.012187
     39      -0.093823  -0.053551  -0.005154   0.016231  -0.013631   0.015921
     40       0.347456   0.221940   0.026529  -0.118713   0.075816  -0.049131
     41       0.564701   0.620580   0.016761  -0.458152   0.251307  -0.045554
                 30         31         32         33         34         35    
      0      -0.002326  -0.035723   0.041842  -0.033693  -0.020392   0.001778
      1       0.010310   0.012674   0.019117   0.000106   0.005081  -0.001895
      2       0.022456   0.024592  -0.021861  -0.028576  -0.041795   0.001475
      3       0.051395   0.005584   0.007330  -0.002086  -0.010162  -0.064900
      4      -0.044449  -0.024421   0.013620   0.000094   0.011036   0.016590
      5       0.007038   0.024712   0.007452   0.057107  -0.052055  -0.026455
      6       0.002877  -0.023253  -0.003174   0.002556   0.004891   0.000388
      7      -0.004706   0.070964  -0.006890  -0.056290   0.023925  -0.000449
      8      -0.004563  -0.054209  -0.057860  -0.247905   0.146499  -0.000551
      9      -0.001227   0.011401  -0.002708  -0.012449   0.006486   0.000087
     10       0.003606  -0.019482   0.013427   0.061191  -0.032589  -0.000111
     11       0.000502   0.086261   0.044119   0.173518  -0.097783   0.000424
     12       0.001190  -0.005548   0.001441   0.005979  -0.002903  -0.000112
     13      -0.002079   0.006045  -0.005643  -0.014753   0.009160   0.000113
     14       0.002762  -0.063748  -0.006645  -0.006225   0.004050  -0.000055
     15       0.000146   0.020005   0.001729  -0.002153   0.000008   0.000019
     16      -0.002463   0.007116  -0.000108  -0.000618  -0.000505  -0.000214
     17      -0.015206   0.447821   0.022172  -0.035925   0.008514  -0.000241
     18      -0.001931  -0.017702   0.001395   0.001940  -0.006270   0.000241
     19       0.004373  -0.001219   0.001692  -0.005573   0.003130  -0.000298
     20       0.008999  -0.320538  -0.009033   0.057963  -0.025139   0.000393
     21       0.072967   0.220274  -0.418362  -0.178934  -0.379712  -0.005300
     22      -0.144474  -0.003269  -0.502740   0.245718   0.031094   0.003982
     23       0.010013  -0.074064   0.229017   0.006662   0.105319  -0.001230
     24       0.088658   0.251235  -0.226302   0.586566   0.591184  -0.002127
     25      -0.085655  -0.036963  -0.152292   0.205979   0.112761   0.027225
     26      -0.209383  -0.118033  -0.347436   0.253058   0.034301  -0.014205
     27       0.053216   0.070375  -0.047703   0.189445   0.187794  -0.010485
     28      -0.099639  -0.212130   0.226467  -0.402956  -0.350412  -0.009909
     29      -0.044446  -0.162899   0.498760   0.257955   0.501642  -0.000395
     30      -0.137337   0.015482   0.031382  -0.008252  -0.021294   0.834653
     31       0.651159   0.023148  -0.058837   0.001713   0.006787   0.229295
     32      -0.016080  -0.040786  -0.002165   0.044818  -0.006044   0.251762
     33      -0.660349  -0.022631   0.012679   0.020569  -0.024658  -0.074197
     34       0.055563  -0.014797   0.019024  -0.029436   0.040033  -0.414840
     35      -0.103837   0.073017   0.034634  -0.105776   0.086198   0.058156
     36      -0.004936  -0.036322  -0.021108  -0.078586   0.044198  -0.000972
     37       0.001741   0.085364   0.054415   0.204843  -0.114383   0.003688
     38       0.004281  -0.237534  -0.052872  -0.139147   0.081653   0.000870
     39      -0.005784   0.168352   0.007880  -0.016086   0.004488  -0.000400
     40       0.022363  -0.503718  -0.024545   0.032113  -0.007619   0.000770
     41       0.024244  -0.327938  -0.014429   0.006843   0.001088  -0.000433
                 36         37         38         39         40         41    
      0      -0.000591   0.009679   0.000262   0.000022  -0.035593   0.057475
      1       0.013066  -0.059319  -0.001174  -0.000033  -0.026485   0.023325
      2      -0.004440   0.023293   0.000412   0.000224   0.043628   0.052389
      3      -0.042549  -0.003676   0.000124  -0.000276  -0.000855   0.001193
      4      -0.081785  -0.017677  -0.000165   0.000329  -0.000986   0.000373
      5       0.002735  -0.001033   0.000082   0.000427   0.000020   0.000082
      6      -0.000255  -0.000355  -0.000916   0.000497   0.000145   0.000120
      7      -0.000120   0.000460   0.002849  -0.002519  -0.000165  -0.000142
      8      -0.001054  -0.000394   0.000977  -0.007171  -0.000129  -0.000302
      9       0.000132  -0.000070   0.004472  -0.026696  -0.000022  -0.000031
     10       0.000184  -0.000075  -0.013809   0.080679  -0.000075  -0.000039
     11       0.000336  -0.000555  -0.008130   0.033102  -0.000147  -0.000105
     12      -0.000082   0.000357  -0.000249   0.000132   0.000025   0.000033
     13       0.000194  -0.000950   0.000757  -0.000321  -0.000132  -0.000038
     14       0.000205  -0.000285   0.000425   0.000596  -0.000149   0.000011
     15       0.000040  -0.000361   0.028053   0.006262   0.000066  -0.000026
     16      -0.000095   0.000945  -0.070812  -0.016194  -0.000179  -0.000004
     17      -0.000280   0.000738   0.048713   0.008746   0.000391   0.000059
     18      -0.000187  -0.000148  -0.000534   0.000348   0.000024   0.000006
     19       0.000078   0.000948   0.000733  -0.001115   0.000233   0.000139
     20       0.000139  -0.001695  -0.004735  -0.000294  -0.000497  -0.000152
     21      -0.007389   0.038514   0.001252  -0.000542  -0.216373  -0.287905
     22      -0.003587   0.019949   0.000181  -0.000018  -0.076553  -0.096494
     23      -0.018355   0.094585   0.002877  -0.000356  -0.530023  -0.752613
     24       0.017870  -0.117631  -0.002003   0.000100  -0.021871   0.006933
     25      -0.166646   0.883337   0.017760   0.000409   0.094140   0.031486
     26       0.078620  -0.385779  -0.009177  -0.000320  -0.034766  -0.003498
     27       0.000796  -0.077040  -0.002692   0.000243   0.725026  -0.516518
     28      -0.003294  -0.047629  -0.001582   0.000061   0.353719  -0.255631
     29      -0.003960   0.003597   0.000206   0.000084  -0.030766   0.036345
     30       0.379685   0.041455  -0.001590   0.002616   0.011613  -0.014945
     31       0.092074   0.012274  -0.000582   0.000333   0.000931  -0.002526
     32       0.119193   0.017938  -0.000726   0.000893  -0.000821  -0.003804
     33       0.130889   0.022229   0.000177  -0.000181   0.003873  -0.001587
     34       0.867972   0.173245   0.001343  -0.001917   0.009626  -0.004733
     35      -0.138673  -0.019273   0.000076   0.000507  -0.001653   0.000482
     36      -0.000503   0.000901  -0.057971   0.291432  -0.000236  -0.000204
     37      -0.000296  -0.003567   0.173310  -0.872556   0.000871   0.000310
     38       0.000818  -0.002305   0.064423  -0.329303   0.000175   0.000151
     39      -0.001261   0.006634  -0.307578  -0.060069  -0.000233   0.000006
     40       0.002942  -0.016652   0.779997   0.152440   0.000878  -0.000099
     41      -0.001819   0.010453  -0.500538  -0.098279  -0.000727   0.000061


-----------
IR SPECTRUM
-----------

 Mode    freq (cm**-1)   T**2         TX         TY         TZ
-------------------------------------------------------------------
   6:        81.53   11.882917  (  2.487715   2.308348  -0.604748)
   7:       215.21   34.145917  ( -2.210509   1.543023  -5.184462)
   8:       246.50    3.495365  (  0.948735   0.558650  -1.511019)
   9:       307.45   17.107751  ( -1.523725  -2.479760   2.938844)
  10:       464.48   33.145046  ( -1.365420   0.967722   5.508556)
  11:       636.54   23.358227  ( -4.471556  -1.597502   0.900780)
  12:       664.77    8.390060  ( -2.679377  -0.872903  -0.670105)
  13:       718.29    0.977332  (  0.085257  -0.190666  -0.966287)
  14:       826.20   12.882456  ( -3.480369  -0.876555  -0.033721)
  15:       893.04    3.708985  ( -0.599649  -1.560070   0.956863)
  16:       899.71   26.652800  ( -4.462715  -2.492872   0.722882)
  17:       951.79    5.798955  (  0.745525   0.088334   2.288088)
  18:       955.19   46.404280  (  0.963315  -0.699395  -6.707246)
  19:      1015.22    9.879634  (  0.339835  -2.714121  -1.548449)
  20:      1092.60   55.978013  ( -1.497298   3.882882  -6.217663)
  21:      1112.51    9.765458  (  1.309165   0.517581  -2.789920)
  22:      1125.07   25.462068  ( -0.695271  -1.047855  -4.886785)
  23:      1194.73   27.933383  ( -1.823468   4.710830  -1.554486)
  24:      1252.21    6.902361  ( -0.873221   1.500887   1.971595)
  25:      1302.96    1.664231  (  0.264599   0.840088   0.942587)
  26:      1327.04    9.117170  (  0.942300   2.866015   0.123288)
  27:      1369.24    2.491213  (  0.212429   1.563852   0.021302)
  28:      1403.82   15.390827  (  1.372512  -2.513019   2.681748)
  29:      1486.00  217.429695  ( -6.219493   6.046761  11.924105)
  30:      1493.84   46.049709  ( -0.224009  -0.408937  -6.769956)
  31:      1577.28   41.921923  (  1.986981  -0.960249   6.087015)
  32:      1629.72   32.066873  ( -4.640062  -2.938121   1.379905)
  33:      1662.98   16.723030  (  1.205414   1.685824   3.525337)
  34:      1674.31   29.071597  (  2.252752  -2.858104   3.978435)
  35:      3095.33    2.553205  ( -0.123954   0.591254  -1.479276)
  36:      3165.00    5.712803  (  0.676745  -1.203864   1.950777)
  37:      3193.49  202.726802  ( -0.638795   9.473134 -10.610301)
  38:      3292.43   17.409936  ( -1.364860   3.734980  -1.263732)
  39:      3306.56   12.591765  (  0.730238  -2.460798  -2.450100)
  40:      3473.93  108.407322  (  4.914352   3.336120  -8.551419)
  41:      3535.88  105.977524  ( -7.076276  -2.989693  -6.853144)

The first frequency considered to be a vibration is 6
The total number of vibrations considered is 36


--------------------------
THERMOCHEMISTRY AT 298.15K
--------------------------

Temperature         ... 298.15 K
Pressure            ... 1.00 atm
Total Mass          ... 99.11 AMU

Throughout the following assumptions are being made:
  (1) The electronic state is orbitally nondegenerate
  (2) There are no thermally accessible electronically excited states
  (3) Hindered rotations indicated by low frequency modes) are not
      treated as such but are treated as vibrations and this may
      case some error
  (4) All equations used are the standard statistical mechanics
      equations for an ideal gas
  (5) All vibrations are strinctly harmonic


------------
INNER ENERGY
------------

The inner energy is: U= E(el) + E(ZPE) + E(vib) + E(rot) + E(trans)
    E(el)   - is the total energy from the electronic structure calculation
              = E(kin-el) + E(nuc-el) + E(el-el) + E(nuc-nuc)
    E(ZPE)  - the the zero temperature vibrational energy from the frequency calculation
    E(vib)  - the the finite temperature correction to E(ZPE) due to population
              of excietd vibrational states
    E(rot)  - is the rotational thermal energy
    E(trans)- is the translational thermal energy

Summary of contributions to the inner energy U:
Electronic energy                ...   -340.85113636 Eh
Zero point energy                ...      0.11992920 Eh      75.26 kcal/mol
Thermal vibrational correction   ...      0.00330078 Eh       2.07 kcal/mol
Thermal rotational correction    ...      0.00141627 Eh       0.89 kcal/mol
Thermal translational correction ...      0.00141627 Eh       0.89 kcal/mol
-----------------------------------------------------------------------
Total thermal energy                   -340.72507383 Eh


Summary of corrections to the electronic energy:
(perhaps to be used in another calculation)
Total thermal correction                  0.00613332 Eh       3.85 kcal/mol
Non-thermal (ZPE) correction              0.11992920 Eh      75.26 kcal/mol
-----------------------------------------------------------------------
Total correction                          0.12606253 Eh      79.11 kcal/mol


--------
ENTHALPY
--------

The enthalpy is H = U + kB*T
                kB is Boltzmann's constant
Total free energy                 ...   -340.72507383 Eh 
Thermal Enthalpy correction       ...      0.00094421 Eh       0.59 kcal/mol
-----------------------------------------------------------------------
Total Enthalpy                    ...   -340.72412962 Eh


-------
ENTROPY
-------

The entropy contributions are T*S = T*(S(el)+S(vib)+S(rot)+S(trans)
     S(el)   - electronic entropy
     S(vib)  - vibrational entropy
     S(rot)  - rotational entropy
     S(trans)- translational entropy
The entropies will be listed as mutliplied by the temperature to get
units of energy

Electronic entropy                ...      0.00000000 Eh      0.00 kcal/mol
Vibrational entropy               ...      0.00567521 Eh      3.56 kcal/mol
Rotational entropy                ...      0.01179188 Eh      7.40 kcal/mol
Translational entropy             ...      0.01885862 Eh     11.83 kcal/mol
-----------------------------------------------------------------------
Final entropy term                ...      0.03632571 Eh     22.79 kcal/mol


CAUTION: The rotational entropy is not quite correctly treated here
         because it includes a symmetry number that is not yet correctly
         implemented in ORCA!
For a nonlinear molecule the correct rotational entropy is:
    S(rot) = R*(ln(qrot/sn)+1.5)
    R    = 8.31441 J/mol/K = 1.987191683e-3 kcal/mol/K
    qrot = 177658.5724068
    sn is the rotational symmetry number. We have assumed 3 here
       if it is different for your molecule then you should correct
       the printed rotational entropy by manually evaluating the equation
       as given above

For convenience we print out the resulting values for sn=1 - 12:
 sn= 1  qrot/sn=  177658.5724 T*S(rot)=     8.05 kcal/mol T*S(tot)=    23.45 kcal/mol
 sn= 2  qrot/sn=   88829.2862 T*S(rot)=     7.64 kcal/mol T*S(tot)=    23.03 kcal/mol
 sn= 3  qrot/sn=   59219.5241 T*S(rot)=     7.40 kcal/mol T*S(tot)=    22.79 kcal/mol
 sn= 4  qrot/sn=   44414.6431 T*S(rot)=     7.23 kcal/mol T*S(tot)=    22.62 kcal/mol
 sn= 5  qrot/sn=   35531.7145 T*S(rot)=     7.10 kcal/mol T*S(tot)=    22.49 kcal/mol
 sn= 6  qrot/sn=   29609.7621 T*S(rot)=     6.99 kcal/mol T*S(tot)=    22.38 kcal/mol
 sn= 7  qrot/sn=   25379.7961 T*S(rot)=     6.90 kcal/mol T*S(tot)=    22.29 kcal/mol
 sn= 8  qrot/sn=   22207.3216 T*S(rot)=     6.82 kcal/mol T*S(tot)=    22.21 kcal/mol
 sn= 9  qrot/sn=   19739.8414 T*S(rot)=     6.75 kcal/mol T*S(tot)=    22.14 kcal/mol
 sn=10  qrot/sn=   17765.8572 T*S(rot)=     6.69 kcal/mol T*S(tot)=    22.08 kcal/mol
 sn=11  qrot/sn=   16150.7793 T*S(rot)=     6.63 kcal/mol T*S(tot)=    22.02 kcal/mol
 sn=12  qrot/sn=   14804.8810 T*S(rot)=     6.58 kcal/mol T*S(tot)=    21.97 kcal/mol


-------------------
GIBBS FREE ENTHALPY
-------------------

The Gibbs free enthalpy is G = H - T*S

Total enthalpy                    ...   -340.72412962 Eh 
Total entropy correction          ...     -0.03632571 Eh    -22.79 kcal/mol
-----------------------------------------------------------------------
Final Gibbs free enthalpy         ...   -340.76045533 Eh

For completeness - the Gibbs free enthalpy minus the electronic energy
G-E(el)                           ...      0.09068102 Eh     56.90 kcal/mol


Timings for individual modules:

Sum of individual times         ...     1490.252 sec (=  24.838 min)
GTO integral calculation        ...        6.714 sec (=   0.112 min)   0.5 %
SCF iterations                  ...      143.212 sec (=   2.387 min)   9.6 %
SCF Gradient evaluation         ...       56.784 sec (=   0.946 min)   3.8 %
Geometry relaxation             ...        0.164 sec (=   0.003 min)   0.0 %
Analytical frequency calculation...     1283.378 sec (=  21.390 min)  86.1 %
                             ****ORCA TERMINATED NORMALLY****
TOTAL RUN TIME: 0 days 0 hours 24 minutes 51 seconds 835 msec
