
                                 *****************
                                 * O   R   C   A *
                                 *****************

           --- An Ab Initio, DFT and Semiempirical electronic structure package ---

                  #######################################################
                  #                        -***-                        #
                  #  Department of molecular theory and spectroscopy    #
                  #              Directorship: Frank Neese              #
                  # Max Planck Institute for Chemical Energy Conversion #
                  #                  D-45470 Muelheim/Ruhr              #
                  #                       Germany                       #
                  #                                                     #
                  #                  All rights reserved                #
                  #                        -***-                        #
                  #######################################################


                         Program Version 3.0.3 - RELEASE   -


 With contributions from (in alphabetic order):
   Ute Becker             : Parallelization
   Dmytro Bykov           : SCF Hessian
   Dmitry Ganyushin       : Spin-Orbit,Spin-Spin,Magnetic field MRCI
   Andreas Hansen         : Spin unrestricted coupled pair/coupled cluster methods
   Dimitrios Liakos       : Extrapolation schemes; parallel MDCI
   Robert Izsak           : Overlap fitted RIJCOSX, COSX-SCS-MP3
   Christian Kollmar      : KDIIS, OOCD, Brueckner-CCSD(T), CCSD density
   Simone Kossmann        : Meta GGA functionals, TD-DFT gradient, OOMP2, MP2 Hessian
   Taras Petrenko         : DFT Hessian,TD-DFT gradient, ASA and ECA modules, normal mode analysis, Resonance Raman, ABS, FL, XAS/XES, NRVS
   Christoph Reimann      : Effective Core Potentials
   Michael Roemelt        : Restricted open shell CIS
   Christoph Riplinger    : Improved optimizer, TS searches, QM/MM, DLPNO-CCSD
   Barbara Sandhoefer     : DKH picture change effects
   Igor Schapiro          : Molecular dynamics
   Kantharuban Sivalingam : CASSCF convergence, NEVPT2
   Boris Wezisla          : Elementary symmetry handling
   Frank Wennmohs         : Technical directorship


 We gratefully acknowledge several colleagues who have allowed us to
 interface, adapt or use parts of their codes:
   Stefan Grimme, W. Hujo, H. Kruse, T. Risthaus : VdW corrections, initial TS optimization,
                                                   DFT functionals, gCP
   Ed Valeev                                     : LibInt (2-el integral package), F12 methods
   Garnet Chan, S. Sharma, R. Olivares           : DMRG
   Ulf Ekstrom                                   : XCFun DFT Library
   Mihaly Kallay                                 : mrcc  (arbitrary order and MRCC methods)
   Andreas Klamt, Michael Diedenhofen            : otool_cosmo (COSMO solvation model)
   Frank Weinhold                                : gennbo (NPA and NBO analysis)
   Christopher J. Cramer and Donald G. Truhlar   : smd solvation model


 Your calculation uses the libint2 library for the computation of 2-el integrals
 For citations please refer to: http://libint.valeyev.net

 This ORCA versions uses:
   CBLAS   interface :  Fast vector & matrix operations
   LAPACKE interface :  Fast linear algebra routines
   SCALAPACK package :  Parallel linear algebra routines


Your calculation utilizes the basis: Ahlrichs-TZV
Cite in your paper:
H - Kr: A. Schaefer, H. Horn and R. Ahlrichs, J. Chem. Phys. 97, 2571 (1992).

The def2-TZV basis will be loaded
Cite in your paper:
 	F. Weigend, R. Ahlrichs, Phys. Chem. Chem. Phys. 2005, 7, 3297.

================================================================================
                                        WARNINGS
                       Please study these warnings very carefully!
================================================================================
Now building the actual basis set
WARNING: Geometry optimizations can change the point-group symmetry!

WARNING: Geometry Optimization
  ===> : Switching off AutoStart
         For restart on a previous wavefunction, please use MOREAD


INFO   : the flag for use of LIBINT has been found!

================================================================================
                                       INPUT FILE
================================================================================
NAME = 6238_+.inp
|  1> ! NORI PBE0 def2-TZVP UseSym TightOPT Freq TightSCF Grid3 FinalGrid5 XYZFile
|  2> % pal
|  3>     nprocs 8
|  4> end
|  5> %method
|  6>     SymThresh 5.0e-2
|  7> end
|  8> % geom 
|  9>     MaxIter 10
| 10> end 
| 11> % maxcore 2000
| 12> % output
| 13>     printlevel mini
| 14>     print[ P_Basis ] 0
| 15>     print[ P_SCFInfo ] 1
| 16>     print[ P_SCFIterInfo ] 1
| 17>     print[ P_OrbEn ] 0
| 18>     print[ P_Cartesian ] 0
| 19> end
| 20> % elprop
| 21>     Dipole false
| 22> end
| 23> *xyz 1 1
| 24>  N        1.7017731500     0.8676178226    -0.7343708047 
| 25>  C        2.5153342402    -0.0946752983     0.0714067033 
| 26>  C        3.0999147268    -1.1339488997    -0.8973599889 
| 27>  O        3.5556454931    -2.2303780324    -0.1669649657 
| 28>  C        2.5896150188    -3.2052123547    -0.3378533685 
| 29>  C        1.7101633845    -2.8322136806    -1.2477600828 
| 30>  O        2.0500855059    -1.5705468935    -1.7409644562 
| 31>  H        1.0660510331     1.4200682721    -0.1575806482 
| 32>  H        1.1550370485     0.3079477540    -1.4050527536 
| 33>  H        2.2848421964     1.5159185877    -1.2680827805 
| 34>  H        3.2835769956     0.4472707283     0.6202406495 
| 35>  H        1.8396493467    -0.5951944037     0.7655228399 
| 36>  H        3.9119645641    -0.7196886427    -1.5054197664 
| 37>  H        2.7002691694    -4.1105708814     0.2339267837 
| 38>  H        0.8605981268    -3.3225840777    -1.6895373608 
| 39> *
| 40> 
| 41>                          ****END OF INPUT****
================================================================================

The point group is C1 - hence turning off symmetry
If this is a round-off problem, please increase the symmetry
        detection tolerance (%method SymThresh)


                       *****************************
                       * Geometry Optimization Run *
                       *****************************

Geometry optimization settings:
Update method            Update   .... BFGS
Choice of coordinates    CoordSys .... Redundant Internals
Initial Hessian          InHess   .... Almoef's Model

Convergence Tolerances:
Energy Change            TolE     ....  1.0000e-06 Eh
Max. Gradient            TolMAXG  ....  1.0000e-04 Eh/bohr
RMS Gradient             TolRMSG  ....  3.0000e-05 Eh/bohr
Max. Displacement        TolMAXD  ....  1.0000e-03 bohr
RMS Displacement         TolRMSD  ....  6.0000e-04 bohr

------------------------------------------------------------------------------
                        ORCA OPTIMIZATION COORDINATE SETUP
------------------------------------------------------------------------------

The optimization will be done in new redundant internal coordinates
Making redundant internal coordinates   ...  (new redundants) done
Evaluating the initial hessian          ...  (Almloef) done
Evaluating the coordinates              ...  done
Calculating the B-matrix                .... done
Calculating the G-matrix                .... done
Diagonalizing the G-matrix              .... done
The first mode is                       ....   34
The number of degrees of freedom        ....   39

    -----------------------------------------------------------------
                    Redundant Internal Coordinates


    -----------------------------------------------------------------
         Definition                    Initial Value    Approx d2E/dq
    -----------------------------------------------------------------
      1. B(C   1,N   0)                  1.4957         0.379500   
      2. B(C   2,C   1)                  1.5363         0.364978   
      3. B(O   3,C   2)                  1.3940         0.551370   
      4. B(C   4,O   3)                  1.3830         0.574151   
      5. B(C   5,C   4)                  1.3193         0.810162   
      6. B(O   6,C   5)                  1.3966         0.546114   
      7. B(O   6,C   2)                  1.4158         0.509036   
      8. B(H   7,N   0)                  1.0208         0.415878   
      9. B(H   8,N   0)                  1.0305         0.401293   
     10. B(H   9,N   0)                  1.0223         0.413580   
     11. B(H  10,C   1)                  1.0886         0.361913   
     12. B(H  11,C   1)                  1.0904         0.359635   
     13. B(H  12,C   2)                  1.0958         0.352511   
     14. B(H  13,C   4)                  1.0765         0.378410   
     15. B(H  14,C   5)                  1.0758         0.379354   
     16. A(H   7,N   0,H   9)          107.8774         0.299180   
     17. A(C   1,N   0,H   9)          112.2727         0.327856   
     18. A(H   7,N   0,H   8)          109.3448         0.297750   
     19. A(C   1,N   0,H   7)          112.4904         0.328155   
     20. A(C   1,N   0,H   8)          106.8448         0.326231   
     21. A(H   8,N   0,H   9)          107.8924         0.297489   
     22. A(N   0,C   1,H  10)          109.5824         0.323482   
     23. A(C   2,C   1,H  10)          112.7146         0.323348   
     24. A(C   2,C   1,H  11)          109.0679         0.323014   
     25. A(N   0,C   1,H  11)          107.5306         0.323147   
     26. A(N   0,C   1,C   2)          107.6064         0.360630   
     27. A(H  10,C   1,H  11)          110.1755         0.291010   
     28. A(O   3,C   2,O   6)          108.1838         0.405089   
     29. A(C   1,C   2,O   6)          107.5890         0.379298   
     30. A(O   3,C   2,H  12)          110.2314         0.342653   
     31. A(C   1,C   2,H  12)          112.0951         0.321956   
     32. A(C   1,C   2,O   3)          109.0297         0.384594   
     33. A(O   6,C   2,H  12)          109.5998         0.338108   
     34. A(C   2,O   3,C   4)          105.1470         0.413819   
     35. A(C   5,C   4,H  13)          132.2709         0.372547   
     36. A(O   3,C   4,H  13)          117.0891         0.349129   
     37. A(O   3,C   4,C   5)          110.5831         0.446320   
     38. A(C   4,C   5,O   6)          109.6772         0.442294   
     39. A(O   6,C   5,H  14)          117.3192         0.346343   
     40. A(C   4,C   5,H  14)          132.9038         0.372707   
     41. A(C   2,O   6,C   5)          104.3967         0.404405   
     42. D(H  11,C   1,N   0,H   8)    -74.0328         0.013190   
     43. D(H  10,C   1,N   0,H   8)    166.2135         0.013190   
     44. D(C   2,C   1,N   0,H   8)     43.3337         0.013190   
     45. D(H  10,C   1,N   0,H   7)    -73.7902         0.013190   
     46. D(H  10,C   1,N   0,H   9)     48.1213         0.013190   
     47. D(C   2,C   1,N   0,H   9)    -74.7585         0.013190   
     48. D(C   2,C   1,N   0,H   7)    163.3301         0.013190   
     49. D(H  11,C   1,N   0,H   9)    167.8750         0.013190   
     50. D(H  11,C   1,N   0,H   7)     45.9635         0.013190   
     51. D(O   6,C   2,C   1,H  10)   -168.1331         0.010667   
     52. D(O   6,C   2,C   1,N   0)    -47.1998         0.010667   
     53. D(O   3,C   2,C   1,H  11)    -47.9426         0.010667   
     54. D(O   3,C   2,C   1,H  10)     74.7611         0.010667   
     55. D(O   6,C   2,C   1,H  11)     69.1631         0.010667   
     56. D(O   3,C   2,C   1,N   0)   -164.3055         0.010667   
     57. D(H  12,C   2,C   1,H  11)   -170.2740         0.010667   
     58. D(H  12,C   2,C   1,H  10)    -47.5702         0.010667   
     59. D(H  12,C   2,C   1,N   0)     73.3631         0.010667   
     60. D(C   4,O   3,C   2,H  12)   -133.6507         0.024237   
     61. D(C   4,O   3,C   2,O   6)    -13.8256         0.024237   
     62. D(C   4,O   3,C   2,C   1)    102.9021         0.024237   
     63. D(H  13,C   4,O   3,C   2)   -173.8259         0.023947   
     64. D(C   5,C   4,O   3,C   2)      8.5800         0.023947   
     65. D(H  14,C   5,C   4,H  13)     -0.8340         0.047560   
     66. D(H  14,C   5,C   4,O   3)    176.2710         0.047560   
     67. D(O   6,C   5,C   4,H  13)   -176.9942         0.047560   
     68. D(O   6,C   5,C   4,O   3)      0.1107         0.047560   
     69. D(C   2,O   6,C   5,C   4)     -8.5896         0.021557   
     70. D(C   5,O   6,C   2,H  12)    134.0494         0.020510   
     71. D(C   5,O   6,C   2,O   3)     13.8283         0.020510   
     72. D(C   5,O   6,C   2,C   1)   -103.8273         0.020510   
     73. D(C   2,O   6,C   5,H  14)    174.5753         0.021557   
    -----------------------------------------------------------------

Number of atoms                         .... 15
Number of degrees of freedom            .... 73

         *************************************************************
         *                GEOMETRY OPTIMIZATION CYCLE   1            *
         *************************************************************


           ************************************************************
           *        Program running with 8 parallel MPI-processes     *
           *              working on a common directory               *
           ************************************************************
           ************************************************************
           *              Shut down parallel processing               *
           ************************************************************


           ************************************************************
           *        Program running with 8 parallel MPI-processes     *
           *              working on a common directory               *
           ************************************************************
------------
SCF SETTINGS
------------
Hamiltonian:
 Density Functional     Method          .... DFT(GTOs)
 Exchange Functional    Exchange        .... PBE
   PBE kappa parameter  XKappa          ....  0.804000
 Correlation Functional Correlation     .... PBE
 LDA part of GGA corr.  LDAOpt          .... PW91-LDA
 Gradients option       PostSCFGGA      .... off
 Hybrid DFT is turned on
   Fraction HF Exchange ScalHFX         ....  0.250000
   Scaling of DF-GGA-X  ScalDFX         ....  0.750000
   Scaling of DF-GGA-C  ScalDFC         ....  1.000000
   Scaling of DF-LDA-C  ScalLDAC        ....  1.000000
   Perturbative correction              ....  0.000000
   NL short-range parameter             ....  6.900000


General Settings:
 Integral files         IntName         .... 6238_+
 Hartree-Fock type      HFTyp           .... RHF
 Total Charge           Charge          ....    1
 Multiplicity           Mult            ....    1
 Number of Electrons    NEL             ....   54
 Basis Dimension        Dim             ....  265
 Nuclear Repulsion      ENuc            ....    332.7337505180 Eh

Convergence Acceleration:
 DIIS                   CNVDIIS         .... on
   Start iteration      DIISMaxIt       ....    12
   Startup error        DIISStart       ....  0.200000
   # of expansion vecs  DIISMaxEq       ....     5
   Bias factor          DIISBfac        ....   1.050
   Max. coefficient     DIISMaxC        ....  10.000
 Newton-Raphson         CNVNR           .... off
 SOSCF                  CNVSOSCF        .... on
   Start iteration      SOSCFMaxIt      ....   150
   Startup grad/error   SOSCFStart      ....  0.003300
 Level Shifting         CNVShift        .... on
   Level shift para.    LevelShift      ....    0.2500
   Turn off err/grad.   ShiftErr        ....    0.0010
 Zerner damping         CNVZerner       .... off
 Static damping         CNVDamp         .... on
   Fraction old density DampFac         ....    0.7000
   Max. Damping (<1)    DampMax         ....    0.9800
   Min. Damping (>=0)   DampMin         ....    0.0000
   Turn off err/grad.   DampErr         ....    0.1000
 Fernandez-Rico         CNVRico         .... off

SCF Procedure:
 Maximum # iterations   MaxIter         ....   125
 SCF integral mode      SCFMode         .... Direct
   Integral package                     .... LIBINT
 Reset frequeny         DirectResetFreq ....    20
 Integral Threshold     Thresh          ....  2.500e-11 Eh
 Primitive CutOff       TCut            ....  2.500e-12 Eh

Convergence Tolerance:
 Convergence Check Mode ConvCheckMode   .... Total+1el-Energy
 Energy Change          TolE            ....  1.000e-08 Eh
 1-El. energy change                    ....  1.000e-05 Eh
 Orbital Gradient       TolG            ....  1.000e-05
 Orbital Rotation angle TolX            ....  1.000e-05
 DIIS Error             TolErr          ....  5.000e-07


Diagonalization of the overlap matrix:
Smallest eigenvalue                        ... 1.311e-04
Time for diagonalization                   ...    0.350 sec
Threshold for overlap eigenvalues          ... 1.000e-08
Number of eigenvalues below threshold      ... 0
Time for construction of square roots      ...    0.018 sec
Total time needed                          ...    0.368 sec

-------------------
DFT GRID GENERATION
-------------------

General Integration Accuracy     IntAcc      ...  4.340
Radial Grid Type                 RadialGrid  ... Gauss-Chebyshev
Angular Grid (max. acc.)         AngularGrid ... Lebedev-194
Angular grid pruning method      GridPruning ... 3 (G Style)
Weight generation scheme         WeightScheme... Becke
Basis function cutoff            BFCut       ...    1.0000e-11
Integration weight cutoff        WCut        ...    1.0000e-14
Grids for H and He will be reduced by one unit

# of grid points (after initial pruning)     ...  35386 (   0.0 sec)
# of grid points (after weights+screening)   ...  32658 (   0.1 sec)
nearest neighbour list constructed           ...    0.0 sec
Grid point re-assignment to atoms done       ...    0.0 sec
Grid point division into batches done        ...    0.1 sec
Reduced shell lists constructed in    0.1 sec

Total number of grid points                  ...    32658
Total number of batches                      ...      517
Average number of points per batch           ...       63
Average number of grid points per atom       ...     2177
Average number of shells per batch           ...    87.79 (80.54%)
Average number of basis functions per batch  ...   220.97 (83.38%)
Average number of large shells per batch     ...    73.45 (83.67%)
Average number of large basis fcns per batch ...   181.12 (81.97%)
Maximum spatial batch extension              ...   2.38,  2.25,  2.16 au
Average spatial batch extension              ...   0.15,  0.14,  0.15 au

Time for grid setup =    0.581 sec

Loading Hartree-Fock densities                     ... done
Calculating cut-offs                               ... done
Setting up the integral package                    ... done
Initializing the effective Hamiltonian             ... done
Starting the Coulomb interaction                   ... done (   0.0 sec)
Reading the grid                                   ... done
Mapping shells                                     ... done
Starting the XC term evaluation                    ... done (   0.4 sec)
  promolecular density results
     # of electrons  =     54.997086613
     EX              =    -45.737943775
     EC              =     -1.850693378
     EX+EC           =    -47.588637154
Transforming the Hamiltonian                       ... done (   0.0 sec)
Diagonalizing the Hamiltonian                      ... done (   0.1 sec)
Back transforming the eigenvectors                 ... done (   0.0 sec)
Now organizing SCF variables                       ... done
--------------
SCF ITERATIONS
--------------
ITER       Energy         Delta-E        Max-DP      RMS-DP      [F,P]     Damp
               ***  Starting incremental Fock matrix formation  ***
  0   -361.7699885840   0.000000000000 0.02742950  0.00072551  0.1535364 0.7000
  1   -361.8176488121  -0.047660228109 0.02407061  0.00056912  0.0709835 0.7000
                               ***Turning on DIIS***
  2   -361.8392143113  -0.021565499210 0.03960854  0.00108367  0.0319741 0.0000
  3   -361.8747000836  -0.035485772262 0.02474956  0.00041766  0.0324205 0.0000
  4   -361.8803177606  -0.005617676997 0.00740676  0.00012761  0.0065910 0.0000
                      *** Initiating the SOSCF procedure ***
                           *** Shutting down DIIS ***
                      *** Re-Reading the Fockian *** 
                      *** Removing any level shift *** 
ITER      Energy       Delta-E        Grad      Rot      Max-DP    RMS-DP
  5   -361.88055838  -0.0002406219  0.000423  0.000423  0.002399  0.000047
               *** Restarting incremental Fock matrix formation ***
  6   -361.88058042  -0.0000220376  0.000129  0.000260  0.001244  0.000026
  7   -361.88058045  -0.0000000269  0.000203  0.000248  0.000525  0.000010
  8   -361.88058253  -0.0000020836  0.000030  0.000091  0.000240  0.000004
  9   -361.88058253   0.0000000002  0.000040  0.000071  0.000055  0.000001
 10   -361.88058258  -0.0000000463  0.000013  0.000030  0.000034  0.000001
 11   -361.88058257   0.0000000021  0.000013  0.000015  0.000018  0.000000
                  ***Gradient check signals convergence***
              ***Rediagonalizing the Fockian in SOSCF/NRSCF***

               *****************************************************
               *                     SUCCESS                       *
               *           SCF CONVERGED AFTER  12 CYCLES          *
               *****************************************************

Setting up the final grid:

General Integration Accuracy     IntAcc      ...  5.010
Radial Grid Type                 RadialGrid  ... Gauss-Chebyshev
Angular Grid (max. acc.)         AngularGrid ... Lebedev-434
Angular grid pruning method      GridPruning ... 3 (G Style)
Weight generation scheme         WeightScheme... Becke
Basis function cutoff            BFCut       ...    1.0000e-11
Integration weight cutoff        WCut        ...    1.0000e-14
Grids for H and He will be reduced by one unit

# of grid points (after initial pruning)     ... 128602 (   0.0 sec)
# of grid points (after weights+screening)   ... 117443 (   1.3 sec)
nearest neighbour list constructed           ...    0.0 sec
Grid point re-assignment to atoms done       ...    0.0 sec
Grid point division into batches done        ...    1.0 sec
Reduced shell lists constructed in    1.3 sec

Total number of grid points                  ...   117443
Total number of batches                      ...     1842
Average number of points per batch           ...       63
Average number of grid points per atom       ...     7830
Average number of shells per batch           ...    87.02 (79.83%)
Average number of basis functions per batch  ...   217.89 (82.22%)
Average number of large shells per batch     ...    72.70 (83.54%)
Average number of large basis fcns per batch ...   179.85 (82.54%)
Maximum spatial batch extension              ...   1.98,  3.22,  1.99 au
Average spatial batch extension              ...   0.10,  0.10,  0.10 au

Final grid set up in    2.6 sec
Final integration                            ... done (   0.9 sec)
Change in XC energy                          ...     0.000256223
Integrated number of electrons               ...    53.999999078
Previous integrated no of electrons          ...    54.000425697
Total Energy       :         -361.88032636 Eh           -9847.26431 eV
  Last Energy change         ...   -5.0773e-09  Tolerance :   1.0000e-08
  Last MAX-Density change    ...    3.2875e-06  Tolerance :   1.0000e-07
             **** THE GBW FILE WAS UPDATED (6238_+.gbw) ****
             **** DENSITY FILE WAS UPDATED (6238_+.scfp.tmp) ****
             **** ENERGY FILE WAS UPDATED (6238_+.en.tmp) ****
Total SCF time: 0 days 0 hours 1 min 20 sec 
           ************************************************************
           *              Shut down parallel processing               *
           ************************************************************

-------------------------   --------------------
FINAL SINGLE POINT ENERGY      -361.880326356581
-------------------------   --------------------



           ************************************************************
           *        Program running with 8 parallel MPI-processes     *
           *              working on a common directory               *
           ************************************************************
------------------------------------------------------------------------------
                         ORCA SCF GRADIENT CALCULATION
------------------------------------------------------------------------------

Gradient of the Kohn-Sham DFT energy:
Kohn-Sham wavefunction type      ... RKS
Hartree-Fock exchange scaling    ...    0.250
Number of operators              ...    1
Number of atoms                  ...   15
Basis set dimensions             ...  265
Integral neglect threshold       ... 2.5e-11
Integral primitive cutoff        ... 2.5e-12

Nuclear repulsion gradient       ... done
One Electron Gradient            ... done
Pre-screening matrix             ... done
Starting the two electron gradient:
Two electron gradient done
Exchange-correlation gradient    ... done

------------------
CARTESIAN GRADIENT
------------------

   1   N   :   -0.000049747   -0.000001283    0.000149041
   2   C   :    0.000275958    0.000078908   -0.000085157
   3   C   :   -0.000083570   -0.000120065   -0.000088653
   4   O   :   -0.000082240    0.000057928   -0.000073006
   5   C   :    0.000083260    0.000035337   -0.000108859
   6   C   :   -0.000001749    0.000006911    0.000060544
   7   O   :   -0.000149604   -0.000070085    0.000075982
   8   H   :   -0.000034918    0.000003413   -0.000008621
   9   H   :    0.000025831    0.000018073   -0.000006605
  10   H   :   -0.000013340    0.000028679   -0.000045332
  11   H   :    0.000037255   -0.000034591    0.000012773
  12   H   :    0.000024075   -0.000072947    0.000033112
  13   H   :    0.000007827    0.000067617    0.000049700
  14   H   :   -0.000012069   -0.000016074    0.000026847
  15   H   :   -0.000026969    0.000018180    0.000008235

Norm of the cartesian gradient     ...    0.000490244
RMS gradient                       ...    0.000073081
MAX gradient                       ...    0.000275958

-------
TIMINGS
-------

Total SCF gradient time            ...       30.652 sec

One electron gradient       ....       0.149 sec  (  0.5%)
Prescreening matrices       ....       0.425 sec  (  1.4%)
Two electron gradient       ....      26.471 sec  ( 86.4%)
XC gradient                 ....       2.647 sec  (  8.6%)
           ************************************************************
           *              Shut down parallel processing               *
           ************************************************************
------------------------------------------------------------------------------
                         ORCA GEOMETRY RELAXATION STEP
------------------------------------------------------------------------------

Reading the OPT-File                    .... done
Getting information on internals        .... done
Copying old internal coords+grads       .... done
Making the new internal coordinates     .... (new redundants).... done
Validating the new internal coordinates .... (new redundants).... done
Calculating the B-matrix                .... done
Calculating the G,G- and P matrices     .... done
Transforming gradient to internals      .... done
Projecting the internal gradient        .... done
Number of atoms                         ....  15
Number of internal coordinates          ....  73
Current Energy                          ....  -361.880326357 Eh
Current gradient norm                   ....     0.000490244 Eh/bohr
Maximum allowed component of the step   ....  0.300
Current trust radius                    ....  0.300
Evaluating the initial hessian          ....  (Almloef) done
Projecting the Hessian                  .... done
Forming the augmented Hessian           .... done
Diagonalizing the augmented Hessian     .... done
Last element of RFO vector              ....  0.999970052
Lowest eigenvalues of augmented Hessian:
 -0.000001261  0.010667747  0.013189722  0.023468020  0.033522292
Length of the computed step             ....  0.007739447
The final length of the internal step   ....  0.007739447
Converting the step to cartesian space:
 Initial RMS(Int)=    0.0009058338
Transforming coordinates:
 Iter   0:  RMS(Cart)=    0.0020913711 RMS(Int)=    0.0009058350
 Iter   1:  RMS(Cart)=    0.0000018042 RMS(Int)=    0.0000010458
 Iter   2:  RMS(Cart)=    0.0000000031 RMS(Int)=    0.0000000012
done
Storing new coordinates                 .... done

                                .--------------------.
          ----------------------|Geometry convergence|---------------------
          Item                value                 Tolerance   Converged
          -----------------------------------------------------------------
          RMS gradient        0.00005211            0.00003000      NO
          MAX gradient        0.00026421            0.00010000      NO
          RMS step            0.00090583            0.00060000      NO
          MAX step            0.00279693            0.00100000      NO
          ....................................................
          Max(Bonds)      0.0004      Max(Angles)    0.03
          Max(Dihed)        0.16      Max(Improp)    0.00
          -----------------------------------------------------------------

The optimization has not yet converged - more geometry cycles are needed


    ---------------------------------------------------------------------------
                         Redundant Internal Coordinates
                            (Angstroem and degrees)

        Definition                    Value    dE/dq     Step     New-Value
    ----------------------------------------------------------------------------
     1. B(C   1,N   0)                1.4957 -0.000079  0.0001    1.4958   
     2. B(C   2,C   1)                1.5363 -0.000264  0.0004    1.5367   
     3. B(O   3,C   2)                1.3940 -0.000097  0.0001    1.3941   
     4. B(C   4,O   3)                1.3830  0.000001  0.0000    1.3830   
     5. B(C   5,C   4)                1.3193 -0.000093  0.0001    1.3193   
     6. B(O   6,C   5)                1.3966 -0.000029  0.0000    1.3967   
     7. B(O   6,C   2)                1.4158 -0.000108  0.0001    1.4159   
     8. B(H   7,N   0)                1.0208  0.000030 -0.0000    1.0208   
     9. B(H   8,N   0)                1.0305  0.000016 -0.0000    1.0305   
    10. B(H   9,N   0)                1.0223  0.000033 -0.0000    1.0223   
    11. B(H  10,C   1)                1.0886 -0.000041  0.0001    1.0887   
    12. B(H  11,C   1)                1.0904  0.000063 -0.0001    1.0903   
    13. B(H  12,C   2)                1.0958  0.000073 -0.0001    1.0957   
    14. B(H  13,C   4)                1.0765  0.000031 -0.0000    1.0765   
    15. B(H  14,C   5)                1.0758 -0.000032  0.0000    1.0759   
    16. A(H   7,N   0,H   9)          107.88 -0.000026    0.01    107.88   
    17. A(C   1,N   0,H   9)          112.27  0.000050   -0.01    112.26   
    18. A(H   7,N   0,H   8)          109.34  0.000011   -0.00    109.34   
    19. A(C   1,N   0,H   7)          112.49 -0.000020    0.00    112.49   
    20. A(C   1,N   0,H   8)          106.84  0.000011   -0.00    106.84   
    21. A(H   8,N   0,H   9)          107.89 -0.000025    0.00    107.90   
    22. A(N   0,C   1,H  10)          109.58 -0.000064    0.01    109.59   
    23. A(C   2,C   1,H  10)          112.71 -0.000043    0.01    112.73   
    24. A(C   2,C   1,H  11)          109.07 -0.000086    0.02    109.09   
    25. A(N   0,C   1,H  11)          107.53  0.000011   -0.01    107.52   
    26. A(N   0,C   1,C   2)          107.61  0.000156   -0.03    107.58   
    27. A(H  10,C   1,H  11)          110.18  0.000031    0.00    110.18   
    28. A(O   3,C   2,O   6)          108.18  0.000024   -0.00    108.18   
    29. A(C   1,C   2,O   6)          107.59 -0.000051    0.01    107.60   
    30. A(O   3,C   2,H  12)          110.23 -0.000021    0.01    110.24   
    31. A(C   1,C   2,H  12)          112.10  0.000030   -0.01    112.09   
    32. A(C   1,C   2,O   3)          109.03 -0.000035    0.02    109.05   
    33. A(O   6,C   2,H  12)          109.60  0.000053   -0.02    109.58   
    34. A(C   2,O   3,C   4)          105.15 -0.000012   -0.00    105.14   
    35. A(C   5,C   4,H  13)          132.27  0.000012   -0.00    132.27   
    36. A(O   3,C   4,H  13)          117.09 -0.000013    0.00    117.09   
    37. A(O   3,C   4,C   5)          110.58  0.000001   -0.00    110.58   
    38. A(C   4,C   5,O   6)          109.68 -0.000012    0.00    109.68   
    39. A(O   6,C   5,H  14)          117.32  0.000003   -0.00    117.32   
    40. A(C   4,C   5,H  14)          132.90  0.000009   -0.00    132.90   
    41. A(C   2,O   6,C   5)          104.40  0.000011   -0.00    104.39   
    42. D(H  11,C   1,N   0,H   8)    -74.03 -0.000000    0.03    -74.01   
    43. D(H  10,C   1,N   0,H   8)    166.21 -0.000008    0.03    166.24   
    44. D(C   2,C   1,N   0,H   8)     43.33 -0.000014    0.03     43.36   
    45. D(H  10,C   1,N   0,H   7)    -73.79  0.000000    0.02    -73.77   
    46. D(H  10,C   1,N   0,H   9)     48.12 -0.000012    0.03     48.15   
    47. D(C   2,C   1,N   0,H   9)    -74.76 -0.000018    0.03    -74.73   
    48. D(C   2,C   1,N   0,H   7)    163.33 -0.000006    0.02    163.35   
    49. D(H  11,C   1,N   0,H   9)    167.87 -0.000004    0.03    167.90   
    50. D(H  11,C   1,N   0,H   7)     45.96  0.000008    0.02     45.99   
    51. D(O   6,C   2,C   1,H  10)   -168.13 -0.000066    0.16   -167.97   
    52. D(O   6,C   2,C   1,N   0)    -47.20 -0.000066    0.16    -47.04   
    53. D(O   3,C   2,C   1,H  11)    -47.94  0.000004    0.13    -47.82   
    54. D(O   3,C   2,C   1,H  10)     74.76 -0.000048    0.15     74.91   
    55. D(O   6,C   2,C   1,H  11)     69.16 -0.000014    0.14     69.30   
    56. D(O   3,C   2,C   1,N   0)   -164.31 -0.000048    0.15   -164.16   
    57. D(H  12,C   2,C   1,H  11)   -170.27  0.000036    0.11   -170.16   
    58. D(H  12,C   2,C   1,H  10)    -47.57 -0.000016    0.13    -47.44   
    59. D(H  12,C   2,C   1,N   0)     73.36 -0.000016    0.13     73.49   
    60. D(C   4,O   3,C   2,H  12)   -133.65 -0.000021   -0.01   -133.67   
    61. D(C   4,O   3,C   2,O   6)    -13.83  0.000045   -0.04    -13.87   
    62. D(C   4,O   3,C   2,C   1)    102.90 -0.000021   -0.02    102.88   
    63. D(H  13,C   4,O   3,C   2)   -173.83 -0.000012    0.01   -173.82   
    64. D(C   5,C   4,O   3,C   2)      8.58 -0.000036    0.03      8.61   
    65. D(H  14,C   5,C   4,H  13)     -0.83 -0.000003    0.00     -0.83   
    66. D(H  14,C   5,C   4,O   3)    176.27  0.000025   -0.02    176.25   
    67. D(O   6,C   5,C   4,H  13)   -176.99 -0.000019    0.02   -176.98   
    68. D(O   6,C   5,C   4,O   3)      0.11  0.000009   -0.01      0.10   
    69. D(C   2,O   6,C   5,C   4)     -8.59  0.000020   -0.02     -8.61   
    70. D(C   5,O   6,C   2,H  12)    134.05 -0.000018    0.03    134.08   
    71. D(C   5,O   6,C   2,O   3)     13.83 -0.000037    0.04     13.86   
    72. D(C   5,O   6,C   2,C   1)   -103.83  0.000019    0.01   -103.81   
    73. D(C   2,O   6,C   5,H  14)    174.58  0.000007   -0.01    174.57   
    ----------------------------------------------------------------------------

         *************************************************************
         *                GEOMETRY OPTIMIZATION CYCLE   2            *
         *************************************************************
---------------------------------
CARTESIAN COORDINATES (ANGSTROEM)
---------------------------------
  N     -1.205588    0.915655   -1.820897
  C     -1.360331    0.553008   -0.377970
  C      0.024439    0.662768    0.279202
  O      0.000062   -0.000561    1.505156
  C      0.645839   -1.202381    1.278610
  C      1.200213   -1.212573    0.081432
  O      0.951378    0.001594   -0.562439
  H     -1.999988    0.614347   -2.386668
  H     -0.350792    0.447937   -2.156283
  H     -1.087043    1.921884   -1.956813
  H     -2.098600    1.205416    0.085251
  H     -1.694547   -0.483837   -0.334198
  H      0.333125    1.704853    0.418140
  H      0.647008   -1.917544    2.083158
  H      1.819479   -1.926363   -0.432863

----------------------------
CARTESIAN COORDINATES (A.U.)
----------------------------
  NO LB      ZA    FRAG    MASS        X           Y           Z
   0 N     7.0000    0    14.007         -2.278232045744188          1.730336391878073         -3.440996828362924
   1 C     6.0000    0    12.011         -2.570653518590556          1.045034039793941         -0.714260223722910
   2 C     6.0000    0    12.011          0.046182336907199          1.252449086376276          0.527615270379177
   3 O     8.0000    0    15.999          0.000116280262441         -0.001059658090154          2.844332260023063
   4 C     6.0000    0    12.011          1.220458921006277         -2.272171231797727          2.416222472155607
   5 C     6.0000    0    12.011          2.268072980610065         -2.291431023015314          0.153884575078877
   6 O     8.0000    0    15.999          1.797843703398967          0.003011510820519         -1.062855084165756
   7 H     1.0000    0     1.008         -3.779429026888226          1.160947947477783         -4.510148181452514
   8 H     1.0000    0     1.008         -0.662899973157734          0.846477840678658         -4.074784574043782
   9 H     1.0000    0     1.008         -2.054214031250126          3.631835115403778         -3.697841308591567
  10 H     1.0000    0     1.008         -3.965778495239491          2.277906905731469          0.161101538868617
  11 H     1.0000    0     1.008         -3.202230440742998         -0.914318977913140         -0.631542758390946
  12 H     1.0000    0     1.008          0.629515552579475          3.221706121181381          0.790170975924968
  13 H     1.0000    0     1.008          1.222668565367050         -3.623632369320252          3.936598794964139
  14 H     1.0000    0     1.008          3.438316779407210         -3.640298562467164         -0.817993173876915

--------------------------------
INTERNAL COORDINATES (ANGSTROEM)
--------------------------------
 N      0   0   0   0.000000     0.000     0.000
 C      1   0   0   1.495826     0.000     0.000
 C      2   1   0   1.536721   107.577     0.000
 O      3   2   1   1.394117   109.046   195.843
 C      4   3   2   1.383013   105.145   102.880
 C      5   4   3   1.319344   110.582     8.612
 O      6   5   4   1.396671   109.678     0.102
 H      1   2   3   1.020761   112.494   163.352
 H      1   2   3   1.030496   106.842    43.361
 H      1   2   3   1.022264   112.265   285.271
 H      2   1   3   1.088692   109.591   122.880
 H      2   1   3   1.090259   107.518   242.634
 H      3   2   1   1.095689   112.088    73.495
 H      5   4   3   1.076456   117.091   186.184
 H      6   5   4   1.075866   132.902   176.248

---------------------------
INTERNAL COORDINATES (A.U.)
---------------------------
 N      0   0   0   0.000000     0.000     0.000
 C      1   0   0   2.826702     0.000     0.000
 C      2   1   0   2.903981   107.577     0.000
 O      3   2   1   2.634499   109.046   195.843
 C      4   3   2   2.613515   105.145   102.880
 C      5   4   3   2.493199   110.582     8.612
 O      6   5   4   2.639325   109.678     0.102
 H      1   2   3   1.928958   112.494   163.352
 H      1   2   3   1.947355   106.842    43.361
 H      1   2   3   1.931800   112.265   285.271
 H      2   1   3   2.057330   109.591   122.880
 H      2   1   3   2.060290   107.518   242.634
 H      3   2   1   2.070552   112.088    73.495
 H      5   4   3   2.034207   117.091   186.184
 H      6   5   4   2.033091   132.902   176.248



           ************************************************************
           *        Program running with 8 parallel MPI-processes     *
           *              working on a common directory               *
           ************************************************************
           ************************************************************
           *              Shut down parallel processing               *
           ************************************************************


           ************************************************************
           *        Program running with 8 parallel MPI-processes     *
           *              working on a common directory               *
           ************************************************************

Diagonalization of the overlap matrix:
Smallest eigenvalue                        ... 1.311e-04
Time for diagonalization                   ...    0.286 sec
Threshold for overlap eigenvalues          ... 1.000e-08
Number of eigenvalues below threshold      ... 0
Time for construction of square roots      ...    0.035 sec
Total time needed                          ...    0.322 sec

-------------------
DFT GRID GENERATION
-------------------

General Integration Accuracy     IntAcc      ...  4.340
Radial Grid Type                 RadialGrid  ... Gauss-Chebyshev
Angular Grid (max. acc.)         AngularGrid ... Lebedev-194
Angular grid pruning method      GridPruning ... 3 (G Style)
Weight generation scheme         WeightScheme... Becke
Basis function cutoff            BFCut       ...    1.0000e-11
Integration weight cutoff        WCut        ...    1.0000e-14
Grids for H and He will be reduced by one unit

# of grid points (after initial pruning)     ...  35386 (   0.0 sec)
# of grid points (after weights+screening)   ...  32659 (   0.2 sec)
nearest neighbour list constructed           ...    0.0 sec
Grid point re-assignment to atoms done       ...    0.0 sec
Grid point division into batches done        ...    0.1 sec
Reduced shell lists constructed in    0.2 sec

Total number of grid points                  ...    32659
Total number of batches                      ...      517
Average number of points per batch           ...       63
Average number of grid points per atom       ...     2177
Average number of shells per batch           ...    87.50 (80.28%)
Average number of basis functions per batch  ...   219.89 (82.98%)
Average number of large shells per batch     ...    73.53 (84.03%)
Average number of large basis fcns per batch ...   181.68 (82.62%)
Maximum spatial batch extension              ...   2.06,  1.96,  2.04 au
Average spatial batch extension              ...   0.15,  0.14,  0.14 au

Time for grid setup =    0.851 sec

--------------
SCF ITERATIONS
--------------
ITER       Energy         Delta-E        Max-DP      RMS-DP      [F,P]     Damp
               ***  Starting incremental Fock matrix formation  ***
                      *** Initiating the SOSCF procedure ***
                      *** Re-Reading the Fockian *** 
                      *** Removing any level shift *** 
ITER      Energy       Delta-E        Grad      Rot      Max-DP    RMS-DP
  0   -361.88058026 -361.8805802630  0.000137  0.000137  0.000213  0.000008
               *** Restarting incremental Fock matrix formation ***
  1   -361.88058355  -0.0000032882  0.000048  0.000100  0.000162  0.000004
  2   -361.88058385  -0.0000003011  0.000021  0.000084  0.000066  0.000002
  3   -361.88058383   0.0000000205  0.000045  0.000060  0.000033  0.000001
  4   -361.88058387  -0.0000000342  0.000003  0.000007  0.000010  0.000000
  5   -361.88058387  -0.0000000003  0.000003  0.000003  0.000006  0.000000
                  ***Gradient check signals convergence***
              ***Rediagonalizing the Fockian in SOSCF/NRSCF***

               *****************************************************
               *                     SUCCESS                       *
               *           SCF CONVERGED AFTER   6 CYCLES          *
               *****************************************************

Setting up the final grid:

General Integration Accuracy     IntAcc      ...  5.010
Radial Grid Type                 RadialGrid  ... Gauss-Chebyshev
Angular Grid (max. acc.)         AngularGrid ... Lebedev-434
Angular grid pruning method      GridPruning ... 3 (G Style)
Weight generation scheme         WeightScheme... Becke
Basis function cutoff            BFCut       ...    1.0000e-11
Integration weight cutoff        WCut        ...    1.0000e-14
Grids for H and He will be reduced by one unit

# of grid points (after initial pruning)     ... 128602 (   0.0 sec)
# of grid points (after weights+screening)   ... 117442 (   1.4 sec)
nearest neighbour list constructed           ...    0.0 sec
Grid point re-assignment to atoms done       ...    0.0 sec
Grid point division into batches done        ...    0.9 sec
Reduced shell lists constructed in    1.2 sec

Total number of grid points                  ...   117442
Total number of batches                      ...     1843
Average number of points per batch           ...       63
Average number of grid points per atom       ...     7829
Average number of shells per batch           ...    87.03 (79.84%)
Average number of basis functions per batch  ...   217.93 (82.24%)
Average number of large shells per batch     ...    72.66 (83.49%)
Average number of large basis fcns per batch ...   179.69 (82.45%)
Maximum spatial batch extension              ...   1.92,  2.17,  2.21 au
Average spatial batch extension              ...   0.10,  0.10,  0.10 au

Final grid set up in    3.2 sec
Final integration                            ... done (   0.8 sec)
Change in XC energy                          ...     0.000256668
Integrated number of electrons               ...    53.999998483
Previous integrated no of electrons          ...    54.000430862
Total Energy       :         -361.88032720 Eh           -9847.26433 eV
  Last Energy change         ...   -6.2806e-10  Tolerance :   1.0000e-08
  Last MAX-Density change    ...    8.8154e-07  Tolerance :   1.0000e-07
             **** THE GBW FILE WAS UPDATED (6238_+.gbw) ****
             **** DENSITY FILE WAS UPDATED (6238_+.scfp.tmp) ****
             **** ENERGY FILE WAS UPDATED (6238_+.en.tmp) ****
Total SCF time: 0 days 0 hours 0 min 42 sec 
           ************************************************************
           *              Shut down parallel processing               *
           ************************************************************

-------------------------   --------------------
FINAL SINGLE POINT ENERGY      -361.880327199430
-------------------------   --------------------



           ************************************************************
           *        Program running with 8 parallel MPI-processes     *
           *              working on a common directory               *
           ************************************************************
------------------------------------------------------------------------------
                         ORCA SCF GRADIENT CALCULATION
------------------------------------------------------------------------------

Gradient of the Kohn-Sham DFT energy:
Kohn-Sham wavefunction type      ... RKS
Hartree-Fock exchange scaling    ...    0.250
Number of operators              ...    1
Number of atoms                  ...   15
Basis set dimensions             ...  265
Integral neglect threshold       ... 2.5e-11
Integral primitive cutoff        ... 2.5e-12

Nuclear repulsion gradient       ... done
One Electron Gradient            ... done
Pre-screening matrix             ... done
Starting the two electron gradient:
Two electron gradient done
Exchange-correlation gradient    ... done

------------------
CARTESIAN GRADIENT
------------------

   1   N   :    0.000032109    0.000009220    0.000091822
   2   C   :    0.000102711    0.000038649   -0.000044903
   3   C   :   -0.000043373   -0.000054820   -0.000080509
   4   O   :   -0.000057093    0.000030774    0.000016448
   5   C   :    0.000035043   -0.000018812   -0.000022403
   6   C   :    0.000006591    0.000027594    0.000010742
   7   O   :   -0.000072891   -0.000021373    0.000031105
   8   H   :    0.000003215   -0.000004112   -0.000004404
   9   H   :   -0.000024004   -0.000005561   -0.000028920
  10   H   :   -0.000017029    0.000003073   -0.000021179
  11   H   :   -0.000006157   -0.000014830    0.000033265
  12   H   :    0.000029932   -0.000016485    0.000006655
  13   H   :    0.000021668    0.000017866    0.000013567
  14   H   :   -0.000004947    0.000007789    0.000004459
  15   H   :   -0.000005775    0.000001029   -0.000005746

Norm of the cartesian gradient     ...    0.000234847
RMS gradient                       ...    0.000035009
MAX gradient                       ...    0.000102711

-------
TIMINGS
-------

Total SCF gradient time            ...       30.208 sec

One electron gradient       ....       0.134 sec  (  0.4%)
Prescreening matrices       ....       0.346 sec  (  1.1%)
Two electron gradient       ....      25.363 sec  ( 84.0%)
XC gradient                 ....       3.024 sec  ( 10.0%)
           ************************************************************
           *              Shut down parallel processing               *
           ************************************************************
------------------------------------------------------------------------------
                         ORCA GEOMETRY RELAXATION STEP
------------------------------------------------------------------------------

Reading the OPT-File                    .... done
Getting information on internals        .... done
Copying old internal coords+grads       .... done
Making the new internal coordinates     .... (new redundants).... done
Validating the new internal coordinates .... (new redundants).... done
Calculating the B-matrix                .... done
Calculating the G,G- and P matrices     .... done
Transforming gradient to internals      .... done
Projecting the internal gradient        .... done
Number of atoms                         ....  15
Number of internal coordinates          ....  73
Current Energy                          ....  -361.880327199 Eh
Current gradient norm                   ....     0.000234847 Eh/bohr
Maximum allowed component of the step   ....  0.300
Current trust radius                    ....  0.300
Updating the Hessian (BFGS)             .... done
Forming the augmented Hessian           .... done
Diagonalizing the augmented Hessian     .... done
Last element of RFO vector              ....  0.999973785
Lowest eigenvalues of augmented Hessian:
 -0.000000532  0.007156118  0.013388464  0.022889139  0.033507629
Length of the computed step             ....  0.007240955
The final length of the internal step   ....  0.007240955
Converting the step to cartesian space:
 Initial RMS(Int)=    0.0008474897
Transforming coordinates:
 Iter   0:  RMS(Cart)=    0.0018193487 RMS(Int)=    0.0008474948
 Iter   1:  RMS(Cart)=    0.0000013187 RMS(Int)=    0.0000007736
 Iter   2:  RMS(Cart)=    0.0000000019 RMS(Int)=    0.0000000008
done
Storing new coordinates                 .... done

                                .--------------------.
          ----------------------|Geometry convergence|---------------------
          Item                value                 Tolerance   Converged
          -----------------------------------------------------------------
          Energy change      -0.00000084            0.00000100      YES
          RMS gradient        0.00002290            0.00003000      YES
          MAX gradient        0.00012619            0.00010000      NO
          RMS step            0.00084749            0.00060000      NO
          MAX step            0.00262332            0.00100000      NO
          ....................................................
          Max(Bonds)      0.0004      Max(Angles)    0.02
          Max(Dihed)        0.15      Max(Improp)    0.00
          -----------------------------------------------------------------

The optimization has not yet converged - more geometry cycles are needed


    ---------------------------------------------------------------------------
                         Redundant Internal Coordinates
                            (Angstroem and degrees)

        Definition                    Value    dE/dq     Step     New-Value
    ----------------------------------------------------------------------------
     1. B(C   1,N   0)                1.4958 -0.000034  0.0001    1.4959   
     2. B(C   2,C   1)                1.5367 -0.000126  0.0004    1.5371   
     3. B(O   3,C   2)                1.3941 -0.000004  0.0000    1.3941   
     4. B(C   4,O   3)                1.3830  0.000017 -0.0000    1.3830   
     5. B(C   5,C   4)                1.3193 -0.000011  0.0000    1.3194   
     6. B(O   6,C   5)                1.3967 -0.000020  0.0000    1.3967   
     7. B(O   6,C   2)                1.4159 -0.000061  0.0001    1.4160   
     8. B(H   7,N   0)                1.0208  0.000000 -0.0000    1.0208   
     9. B(H   8,N   0)                1.0305 -0.000007  0.0000    1.0305   
    10. B(H   9,N   0)                1.0223  0.000005 -0.0000    1.0222   
    11. B(H  10,C   1)                1.0887  0.000009 -0.0000    1.0887   
    12. B(H  11,C   1)                1.0903  0.000007 -0.0000    1.0902   
    13. B(H  12,C   2)                1.0957  0.000025 -0.0001    1.0956   
    14. B(H  13,C   4)                1.0765 -0.000001 -0.0000    1.0765   
    15. B(H  14,C   5)                1.0759 -0.000002  0.0000    1.0759   
    16. A(H   7,N   0,H   9)          107.88 -0.000015    0.01    107.89   
    17. A(C   1,N   0,H   9)          112.26  0.000024   -0.01    112.25   
    18. A(H   7,N   0,H   8)          109.34 -0.000024    0.01    109.35   
    19. A(C   1,N   0,H   7)          112.49 -0.000010    0.01    112.50   
    20. A(C   1,N   0,H   8)          106.84  0.000035   -0.01    106.83   
    21. A(H   8,N   0,H   9)          107.90 -0.000011   -0.00    107.89   
    22. A(N   0,C   1,H  10)          109.59 -0.000006   -0.01    109.59   
    23. A(C   2,C   1,H  10)          112.73 -0.000019    0.01    112.73   
    24. A(C   2,C   1,H  11)          109.09 -0.000036    0.02    109.11   
    25. A(N   0,C   1,H  11)          107.52  0.000001   -0.01    107.51   
    26. A(N   0,C   1,C   2)          107.58  0.000051   -0.02    107.56   
    27. A(H  10,C   1,H  11)          110.18  0.000011    0.00    110.18   
    28. A(O   3,C   2,O   6)          108.18  0.000023   -0.01    108.17   
    29. A(C   1,C   2,O   6)          107.60 -0.000025    0.01    107.61   
    30. A(O   3,C   2,H  12)          110.24 -0.000012    0.01    110.25   
    31. A(C   1,C   2,H  12)          112.09  0.000025   -0.01    112.08   
    32. A(C   1,C   2,O   3)          109.05 -0.000021    0.01    109.06   
    33. A(O   6,C   2,H  12)          109.58  0.000009   -0.01    109.56   
    34. A(C   2,O   3,C   4)          105.14 -0.000022    0.00    105.15   
    35. A(C   5,C   4,H  13)          132.27  0.000013   -0.00    132.27   
    36. A(O   3,C   4,H  13)          117.09 -0.000009    0.00    117.09   
    37. A(O   3,C   4,C   5)          110.58 -0.000003   -0.00    110.58   
    38. A(C   4,C   5,O   6)          109.68  0.000002   -0.00    109.68   
    39. A(O   6,C   5,H  14)          117.32 -0.000005    0.00    117.32   
    40. A(C   4,C   5,H  14)          132.90  0.000004   -0.00    132.90   
    41. A(C   2,O   6,C   5)          104.39  0.000006   -0.00    104.39   
    42. D(H  11,C   1,N   0,H   8)    -74.01  0.000020   -0.01    -74.02   
    43. D(H  10,C   1,N   0,H   8)    166.24  0.000010   -0.01    166.23   
    44. D(C   2,C   1,N   0,H   8)     43.36  0.000005   -0.00     43.36   
    45. D(H  10,C   1,N   0,H   7)    -73.77 -0.000002   -0.00    -73.77   
    46. D(H  10,C   1,N   0,H   9)     48.15 -0.000011    0.01     48.16   
    47. D(C   2,C   1,N   0,H   9)    -74.73 -0.000017    0.02    -74.71   
    48. D(C   2,C   1,N   0,H   7)    163.35 -0.000008    0.01    163.36   
    49. D(H  11,C   1,N   0,H   9)    167.90 -0.000002    0.01    167.91   
    50. D(H  11,C   1,N   0,H   7)     45.99  0.000007   -0.00     45.98   
    51. D(O   6,C   2,C   1,H  10)   -167.97 -0.000028    0.15   -167.82   
    52. D(O   6,C   2,C   1,N   0)    -47.04 -0.000013    0.13    -46.91   
    53. D(O   3,C   2,C   1,H  11)    -47.82 -0.000006    0.13    -47.69   
    54. D(O   3,C   2,C   1,H  10)     74.91 -0.000031    0.15     75.06   
    55. D(O   6,C   2,C   1,H  11)     69.30 -0.000003    0.13     69.43   
    56. D(O   3,C   2,C   1,N   0)   -164.16 -0.000016    0.13   -164.03   
    57. D(H  12,C   2,C   1,H  11)   -170.16  0.000007    0.11   -170.05   
    58. D(H  12,C   2,C   1,H  10)    -47.44 -0.000018    0.14    -47.30   
    59. D(H  12,C   2,C   1,N   0)     73.49 -0.000003    0.12     73.61   
    60. D(C   4,O   3,C   2,H  12)   -133.67  0.000001   -0.03   -133.69   
    61. D(C   4,O   3,C   2,O   6)    -13.87  0.000020   -0.04    -13.91   
    62. D(C   4,O   3,C   2,C   1)    102.88 -0.000008   -0.03    102.85   
    63. D(H  13,C   4,O   3,C   2)   -173.82 -0.000008    0.01   -173.80   
    64. D(C   5,C   4,O   3,C   2)      8.61 -0.000016    0.03      8.64   
    65. D(H  14,C   5,C   4,H  13)     -0.83  0.000001   -0.00     -0.84   
    66. D(H  14,C   5,C   4,O   3)    176.25  0.000010   -0.02    176.23   
    67. D(O   6,C   5,C   4,H  13)   -176.98 -0.000009    0.02   -176.96   
    68. D(O   6,C   5,C   4,O   3)      0.10 -0.000000   -0.00      0.10   
    69. D(C   2,O   6,C   5,C   4)     -8.61  0.000012   -0.03     -8.63   
    70. D(C   5,O   6,C   2,H  12)    134.08 -0.000012    0.04    134.12   
    71. D(C   5,O   6,C   2,O   3)     13.86 -0.000017    0.04     13.91   
    72. D(C   5,O   6,C   2,C   1)   -103.81  0.000009    0.03   -103.79   
    73. D(C   2,O   6,C   5,H  14)    174.57  0.000003   -0.01    174.56   
    ----------------------------------------------------------------------------

         *************************************************************
         *                GEOMETRY OPTIMIZATION CYCLE   3            *
         *************************************************************
---------------------------------
CARTESIAN COORDINATES (ANGSTROEM)
---------------------------------
  N     -1.205110    0.914466   -1.820817
  C     -1.360909    0.553652   -0.377446
  C      0.024154    0.663241    0.279979
  O      0.000236   -0.001007    1.505458
  C      0.645777   -1.202709    1.277785
  C      1.200183   -1.211849    0.080590
  O      0.951537    0.003017   -0.562121
  H     -1.999465    0.613294   -2.386712
  H     -0.350462    0.445572   -2.154982
  H     -1.085405    1.920416   -1.957675
  H     -2.098780    1.207349    0.084550
  H     -1.696183   -0.482782   -0.332711
  H      0.332489    1.705275    0.419482
  H      0.647022   -1.918583    2.081697
  H      1.819570   -1.925149   -0.434258

----------------------------
CARTESIAN COORDINATES (A.U.)
----------------------------
  NO LB      ZA    FRAG    MASS        X           Y           Z
   0 N     7.0000    0    14.007         -2.277328119032392          1.728090791176170         -3.440844581387770
   1 C     6.0000    0    12.011         -2.571745439427680          1.046250417473931         -0.713270306753606
   2 C     6.0000    0    12.011          0.045644030530009          1.253342948794845          0.529083680717628
   3 O     8.0000    0    15.999          0.000445862319807         -0.001902377657506          2.844903134039944
   4 C     6.0000    0    12.011          1.220341120466456         -2.272790200305984          2.414662929655441
   5 C     6.0000    0    12.011          2.268017268969119         -2.290062440890006          0.152292635945526
   6 O     8.0000    0    15.999          1.798145265418721          0.005700901860876         -1.062255057874883
   7 H     1.0000    0     1.008         -3.778441271642908          1.158958625806560         -4.510232275025166
   8 H     1.0000    0     1.008         -0.662277802092737          0.842009775432923         -4.072325925513302
   9 H     1.0000    0     1.008         -2.051118967122357          3.629060089542868         -3.699469686095169
  10 H     1.0000    0     1.008         -3.966119712052429          2.281558877963610          0.159776868415928
  11 H     1.0000    0     1.008         -3.205320755661367         -0.912325146698771         -0.628731962551027
  12 H     1.0000    0     1.008          0.628312987582501          3.222502738048311          0.792705580480177
  13 H     1.0000    0     1.008          1.222694839421232         -3.625597064101882          3.933837666165844
  14 H     1.0000    0     1.008          3.438488280249391         -3.638004799707820         -0.820628945432434

--------------------------------
INTERNAL COORDINATES (ANGSTROEM)
--------------------------------
 N      0   0   0   0.000000     0.000     0.000
 C      1   0   0   1.495920     0.000     0.000
 C      2   1   0   1.537081   107.556     0.000
 O      3   2   1   1.394129   109.059   195.974
 C      4   3   2   1.382984   105.147   102.851
 C      5   4   3   1.319365   110.582     8.641
 O      6   5   4   1.396711   109.677     0.101
 H      1   2   3   1.020756   112.501   163.360
 H      1   2   3   1.030510   106.828    43.359
 H      1   2   3   1.022250   112.255   285.287
 H      2   1   3   1.088676   109.586   122.872
 H      2   1   3   1.090231   107.513   242.623
 H      3   2   1   1.095613   112.078    73.615
 H      5   4   3   1.076454   117.094   186.199
 H      6   5   4   1.075874   132.901   176.226

---------------------------
INTERNAL COORDINATES (A.U.)
---------------------------
 N      0   0   0   0.000000     0.000     0.000
 C      1   0   0   2.826880     0.000     0.000
 C      2   1   0   2.904661   107.556     0.000
 O      3   2   1   2.634521   109.059   195.974
 C      4   3   2   2.613462   105.147   102.851
 C      5   4   3   2.493239   110.582     8.641
 O      6   5   4   2.639401   109.677     0.101
 H      1   2   3   1.928948   112.501   163.360
 H      1   2   3   1.947382   106.828    43.359
 H      1   2   3   1.931772   112.255   285.287
 H      2   1   3   2.057299   109.586   122.872
 H      2   1   3   2.060238   107.513   242.623
 H      3   2   1   2.070408   112.078    73.615
 H      5   4   3   2.034203   117.094   186.199
 H      6   5   4   2.033108   132.901   176.226



           ************************************************************
           *        Program running with 8 parallel MPI-processes     *
           *              working on a common directory               *
           ************************************************************
           ************************************************************
           *              Shut down parallel processing               *
           ************************************************************


           ************************************************************
           *        Program running with 8 parallel MPI-processes     *
           *              working on a common directory               *
           ************************************************************

Diagonalization of the overlap matrix:
Smallest eigenvalue                        ... 1.311e-04
Time for diagonalization                   ...    0.305 sec
Threshold for overlap eigenvalues          ... 1.000e-08
Number of eigenvalues below threshold      ... 0
Time for construction of square roots      ...    0.021 sec
Total time needed                          ...    0.326 sec

-------------------
DFT GRID GENERATION
-------------------

General Integration Accuracy     IntAcc      ...  4.340
Radial Grid Type                 RadialGrid  ... Gauss-Chebyshev
Angular Grid (max. acc.)         AngularGrid ... Lebedev-194
Angular grid pruning method      GridPruning ... 3 (G Style)
Weight generation scheme         WeightScheme... Becke
Basis function cutoff            BFCut       ...    1.0000e-11
Integration weight cutoff        WCut        ...    1.0000e-14
Grids for H and He will be reduced by one unit

# of grid points (after initial pruning)     ...  35386 (   0.0 sec)
# of grid points (after weights+screening)   ...  32660 (   0.1 sec)
nearest neighbour list constructed           ...    0.0 sec
Grid point re-assignment to atoms done       ...    0.0 sec
Grid point division into batches done        ...    0.1 sec
Reduced shell lists constructed in    0.1 sec

Total number of grid points                  ...    32660
Total number of batches                      ...      518
Average number of points per batch           ...       63
Average number of grid points per atom       ...     2177
Average number of shells per batch           ...    87.52 (80.29%)
Average number of basis functions per batch  ...   219.91 (82.98%)
Average number of large shells per batch     ...    73.55 (84.04%)
Average number of large basis fcns per batch ...   181.73 (82.64%)
Maximum spatial batch extension              ...   2.06,  1.97,  2.05 au
Average spatial batch extension              ...   0.15,  0.13,  0.14 au

Time for grid setup =    0.681 sec

--------------
SCF ITERATIONS
--------------
ITER       Energy         Delta-E        Max-DP      RMS-DP      [F,P]     Damp
               ***  Starting incremental Fock matrix formation  ***
                      *** Initiating the SOSCF procedure ***
                      *** Re-Reading the Fockian *** 
                      *** Removing any level shift *** 
ITER      Energy       Delta-E        Grad      Rot      Max-DP    RMS-DP
  0   -361.88058165 -361.8805816524  0.000120  0.000120  0.000206  0.000007
               *** Restarting incremental Fock matrix formation ***
  1   -361.88058417  -0.0000025203  0.000043  0.000090  0.000145  0.000004
  2   -361.88058441  -0.0000002409  0.000015  0.000060  0.000040  0.000001
  3   -361.88058441   0.0000000075  0.000032  0.000045  0.000023  0.000001
  4   -361.88058442  -0.0000000157  0.000003  0.000006  0.000009  0.000000
  5   -361.88058442   0.0000000002  0.000003  0.000002  0.000005  0.000000
                  ***Gradient check signals convergence***
              ***Rediagonalizing the Fockian in SOSCF/NRSCF***

               *****************************************************
               *                     SUCCESS                       *
               *           SCF CONVERGED AFTER   6 CYCLES          *
               *****************************************************

Setting up the final grid:

General Integration Accuracy     IntAcc      ...  5.010
Radial Grid Type                 RadialGrid  ... Gauss-Chebyshev
Angular Grid (max. acc.)         AngularGrid ... Lebedev-434
Angular grid pruning method      GridPruning ... 3 (G Style)
Weight generation scheme         WeightScheme... Becke
Basis function cutoff            BFCut       ...    1.0000e-11
Integration weight cutoff        WCut        ...    1.0000e-14
Grids for H and He will be reduced by one unit

# of grid points (after initial pruning)     ... 128602 (   0.0 sec)
# of grid points (after weights+screening)   ... 117439 (   1.6 sec)
nearest neighbour list constructed           ...    0.0 sec
Grid point re-assignment to atoms done       ...    0.0 sec
Grid point division into batches done        ...    0.9 sec
Reduced shell lists constructed in    1.2 sec

Total number of grid points                  ...   117439
Total number of batches                      ...     1843
Average number of points per batch           ...       63
Average number of grid points per atom       ...     7829
Average number of shells per batch           ...    86.98 (79.80%)
Average number of basis functions per batch  ...   217.78 (82.18%)
Average number of large shells per batch     ...    72.61 (83.48%)
Average number of large basis fcns per batch ...   179.54 (82.44%)
Maximum spatial batch extension              ...   1.94,  1.88,  2.10 au
Average spatial batch extension              ...   0.10,  0.10,  0.10 au

Final grid set up in    3.0 sec
Final integration                            ... done (   0.8 sec)
Change in XC energy                          ...     0.000256969
Integrated number of electrons               ...    53.999997977
Previous integrated no of electrons          ...    54.000434725
Total Energy       :         -361.88032745 Eh           -9847.26434 eV
  Last Energy change         ...   -7.0685e-10  Tolerance :   1.0000e-08
  Last MAX-Density change    ...    8.2638e-07  Tolerance :   1.0000e-07
             **** THE GBW FILE WAS UPDATED (6238_+.gbw) ****
             **** DENSITY FILE WAS UPDATED (6238_+.scfp.tmp) ****
             **** ENERGY FILE WAS UPDATED (6238_+.en.tmp) ****
Total SCF time: 0 days 0 hours 0 min 38 sec 
           ************************************************************
           *              Shut down parallel processing               *
           ************************************************************

-------------------------   --------------------
FINAL SINGLE POINT ENERGY      -361.880327453088
-------------------------   --------------------



           ************************************************************
           *        Program running with 8 parallel MPI-processes     *
           *              working on a common directory               *
           ************************************************************
------------------------------------------------------------------------------
                         ORCA SCF GRADIENT CALCULATION
------------------------------------------------------------------------------

Gradient of the Kohn-Sham DFT energy:
Kohn-Sham wavefunction type      ... RKS
Hartree-Fock exchange scaling    ...    0.250
Number of operators              ...    1
Number of atoms                  ...   15
Basis set dimensions             ...  265
Integral neglect threshold       ... 2.5e-11
Integral primitive cutoff        ... 2.5e-12

Nuclear repulsion gradient       ... done
One Electron Gradient            ... done
Pre-screening matrix             ... done
Starting the two electron gradient:
Two electron gradient done
Exchange-correlation gradient    ... done

------------------
CARTESIAN GRADIENT
------------------

   1   N   :    0.000054837    0.000013700    0.000040225
   2   C   :   -0.000035665    0.000031142    0.000002369
   3   C   :   -0.000011035    0.000015432   -0.000040724
   4   O   :   -0.000021660   -0.000000088    0.000043673
   5   C   :    0.000010767   -0.000028609    0.000003389
   6   C   :    0.000007077    0.000017712   -0.000009507
   7   O   :    0.000005143   -0.000002870    0.000005593
   8   H   :    0.000004503   -0.000009305   -0.000008790
   9   H   :   -0.000034947   -0.000017937   -0.000027564
  10   H   :   -0.000007886   -0.000003084   -0.000001607
  11   H   :   -0.000011226   -0.000013405    0.000012096
  12   H   :    0.000016446   -0.000000874   -0.000008430
  13   H   :    0.000021663   -0.000008467   -0.000007728
  14   H   :    0.000002002    0.000008977    0.000001937
  15   H   :   -0.000000018   -0.000002325   -0.000004932

Norm of the cartesian gradient     ...    0.000130367
RMS gradient                       ...    0.000019434
MAX gradient                       ...    0.000054837

-------
TIMINGS
-------

Total SCF gradient time            ...       30.782 sec

One electron gradient       ....       0.149 sec  (  0.5%)
Prescreening matrices       ....       0.363 sec  (  1.2%)
Two electron gradient       ....      25.471 sec  ( 82.7%)
XC gradient                 ....       2.381 sec  (  7.7%)
           ************************************************************
           *              Shut down parallel processing               *
           ************************************************************
------------------------------------------------------------------------------
                         ORCA GEOMETRY RELAXATION STEP
------------------------------------------------------------------------------

Reading the OPT-File                    .... done
Getting information on internals        .... done
Copying old internal coords+grads       .... done
Making the new internal coordinates     .... (new redundants).... done
Validating the new internal coordinates .... (new redundants).... done
Calculating the B-matrix                .... done
Calculating the G,G- and P matrices     .... done
Transforming gradient to internals      .... done
Projecting the internal gradient        .... done
Number of atoms                         ....  15
Number of internal coordinates          ....  73
Current Energy                          ....  -361.880327453 Eh
Current gradient norm                   ....     0.000130367 Eh/bohr
Maximum allowed component of the step   ....  0.300
Current trust radius                    ....  0.300
Updating the Hessian (BFGS)             .... done
Forming the augmented Hessian           .... done
Diagonalizing the augmented Hessian     .... done
Last element of RFO vector              ....  0.999997247
Lowest eigenvalues of augmented Hessian:
 -0.000000066  0.005906271  0.013774539  0.022395287  0.033484077
Length of the computed step             ....  0.002346612
The final length of the internal step   ....  0.002346612
Converting the step to cartesian space:
 Initial RMS(Int)=    0.0002746502
Transforming coordinates:
 Iter   0:  RMS(Cart)=    0.0004785169 RMS(Int)=    0.0002746457
 Iter   1:  RMS(Cart)=    0.0000000895 RMS(Int)=    0.0000000581
done
Storing new coordinates                 .... done

                                .--------------------.
          ----------------------|Geometry convergence|---------------------
          Item                value                 Tolerance   Converged
          -----------------------------------------------------------------
          Energy change      -0.00000025            0.00000100      YES
          RMS gradient        0.00000972            0.00003000      YES
          MAX gradient        0.00003897            0.00010000      YES
          RMS step            0.00027465            0.00060000      YES
          MAX step            0.00071392            0.00100000      YES
          ....................................................
          Max(Bonds)      0.0001      Max(Angles)    0.01
          Max(Dihed)        0.04      Max(Improp)    0.00
          -----------------------------------------------------------------

                    ***********************HURRAY********************
                    ***        THE OPTIMIZATION HAS CONVERGED     ***
                    *************************************************


    ---------------------------------------------------------------------------
                         Redundant Internal Coordinates

                          --- Optimized Parameters ---  
                            (Angstroem and degrees)

        Definition                    OldVal   dE/dq     Step     FinalVal
    ----------------------------------------------------------------------------
     1. B(C   1,N   0)                1.4959 -0.000002  0.0000    1.4959   
     2. B(C   2,C   1)                1.5371  0.000006  0.0001    1.5371   
     3. B(O   3,C   2)                1.3941  0.000039 -0.0000    1.3941   
     4. B(C   4,O   3)                1.3830  0.000021 -0.0000    1.3830   
     5. B(C   5,C   4)                1.3194  0.000014 -0.0000    1.3194   
     6. B(O   6,C   5)                1.3967 -0.000007  0.0000    1.3967   
     7. B(O   6,C   2)                1.4160 -0.000002  0.0000    1.4160   
     8. B(H   7,N   0)                1.0208  0.000003 -0.0000    1.0207   
     9. B(H   8,N   0)                1.0305 -0.000011  0.0000    1.0305   
    10. B(H   9,N   0)                1.0222 -0.000003  0.0000    1.0222   
    11. B(H  10,C   1)                1.0887  0.000004 -0.0000    1.0887   
    12. B(H  11,C   1)                1.0902 -0.000005 -0.0000    1.0902   
    13. B(H  12,C   2)                1.0956 -0.000003 -0.0000    1.0956   
    14. B(H  13,C   4)                1.0765 -0.000004  0.0000    1.0765   
    15. B(H  14,C   5)                1.0759  0.000004 -0.0000    1.0759   
    16. A(H   7,N   0,H   9)          107.89 -0.000003    0.00    107.90   
    17. A(C   1,N   0,H   9)          112.25  0.000001   -0.00    112.25   
    18. A(H   7,N   0,H   8)          109.35 -0.000029    0.01    109.36   
    19. A(C   1,N   0,H   7)          112.50 -0.000001    0.00    112.50   
    20. A(C   1,N   0,H   8)          106.83  0.000030   -0.01    106.82   
    21. A(H   8,N   0,H   9)          107.89  0.000000   -0.01    107.89   
    22. A(N   0,C   1,H  10)          109.59  0.000013   -0.01    109.58   
    23. A(C   2,C   1,H  10)          112.73  0.000002   -0.00    112.73   
    24. A(C   2,C   1,H  11)          109.11 -0.000000    0.01    109.11   
    25. A(N   0,C   1,H  11)          107.51 -0.000005    0.00    107.52   
    26. A(N   0,C   1,C   2)          107.56 -0.000008   -0.00    107.55   
    27. A(H  10,C   1,H  11)          110.18 -0.000001    0.00    110.18   
    28. A(O   3,C   2,O   6)          108.17  0.000000   -0.00    108.17   
    29. A(C   1,C   2,O   6)          107.61  0.000010   -0.00    107.61   
    30. A(O   3,C   2,H  12)          110.25 -0.000000    0.00    110.25   
    31. A(C   1,C   2,H  12)          112.08  0.000010   -0.00    112.07   
    32. A(C   1,C   2,O   3)          109.06 -0.000005    0.00    109.06   
    33. A(O   6,C   2,H  12)          109.56 -0.000014    0.00    109.57   
    34. A(C   2,O   3,C   4)          105.15 -0.000012    0.00    105.15   
    35. A(C   5,C   4,H  13)          132.27  0.000007   -0.00    132.26   
    36. A(O   3,C   4,H  13)          117.09 -0.000005    0.00    117.10   
    37. A(O   3,C   4,C   5)          110.58 -0.000002   -0.00    110.58   
    38. A(C   4,C   5,O   6)          109.68  0.000006   -0.00    109.68   
    39. A(O   6,C   5,H  14)          117.32 -0.000005    0.00    117.32   
    40. A(C   4,C   5,H  14)          132.90 -0.000001   -0.00    132.90   
    41. A(C   2,O   6,C   5)          104.39  0.000007   -0.00    104.39   
    42. D(H  11,C   1,N   0,H   8)    -74.02  0.000020   -0.03    -74.05   
    43. D(H  10,C   1,N   0,H   8)    166.23  0.000017   -0.03    166.20   
    44. D(C   2,C   1,N   0,H   8)     43.36  0.000012   -0.02     43.34   
    45. D(H  10,C   1,N   0,H   7)    -73.77  0.000001   -0.02    -73.79   
    46. D(H  10,C   1,N   0,H   9)     48.16 -0.000003   -0.02     48.14   
    47. D(C   2,C   1,N   0,H   9)    -74.71 -0.000007   -0.01    -74.72   
    48. D(C   2,C   1,N   0,H   7)    163.36 -0.000004   -0.01    163.35   
    49. D(H  11,C   1,N   0,H   9)    167.91  0.000000   -0.02    167.89   
    50. D(H  11,C   1,N   0,H   7)     45.98  0.000004   -0.02     45.96   
    51. D(O   6,C   2,C   1,H  10)   -167.82 -0.000004    0.04   -167.78   
    52. D(O   6,C   2,C   1,N   0)    -46.91  0.000008    0.03    -46.88   
    53. D(O   3,C   2,C   1,H  11)    -47.69 -0.000006    0.04    -47.65   
    54. D(O   3,C   2,C   1,H  10)     75.06 -0.000006    0.04     75.10   
[...]
     23      -0.207259   0.211756   0.039155   0.032064  -0.017145   0.212894
     24       0.052907  -0.071717  -0.019919  -0.001664  -0.063316  -0.038632
     25       0.040769  -0.134391  -0.062393   0.003155  -0.127427  -0.079421
     26       0.094703   0.058475   0.068828  -0.030460   0.237521  -0.071596
     27       0.056485   0.003099   0.022222  -0.018709   0.150104  -0.063515
     28      -0.001178   0.003707   0.011683   0.003175   0.024989   0.029428
     29       0.157921  -0.325550  -0.113002   0.001273  -0.272166  -0.124092
     30       0.115953   0.181906   0.170160  -0.021729  -0.147836   0.290721
     31       0.006668   0.114443   0.097477  -0.005515   0.148348   0.081120
     32       0.125421  -0.015073   0.036625   0.010225  -0.639318   0.363553
     33       0.252429  -0.492452  -0.071416   0.011312   0.072258   0.220968
     34      -0.006019   0.011603  -0.014898  -0.005874  -0.063992  -0.135726
     35       0.221207  -0.234079   0.110039   0.008998   0.522344   0.420746
     36      -0.145083  -0.108766  -0.232206  -0.273043   0.144425   0.388550
     37       0.034070   0.249572   0.246926  -0.002934  -0.089504  -0.178760
     38       0.015259  -0.079359  -0.094152   0.566054  -0.068776   0.449734
     39       0.294216   0.220626  -0.303075   0.302807   0.043366  -0.059842
     40      -0.293458  -0.266910   0.391945  -0.330661  -0.048448   0.061602
     41      -0.372756  -0.232999   0.234633  -0.320641  -0.046057   0.079223
     42      -0.090666  -0.031322  -0.006190   0.040861   0.005892  -0.000012
     43      -0.339821  -0.230358   0.400832   0.320363   0.040165  -0.082496
     44       0.510754   0.284873  -0.425646  -0.420901  -0.052152   0.095852
                 30         31         32         33         34         35    
      0      -0.000586   0.022557  -0.017309   0.006127   0.017796  -0.043466
      1       0.011149   0.010116  -0.014129   0.015005  -0.043182  -0.023504
      2       0.024838  -0.002518   0.035444  -0.099657   0.012802  -0.012098
      3      -0.017552  -0.077455  -0.045947  -0.009345   0.010168  -0.014686
      4       0.019646   0.022490  -0.023412  -0.008143  -0.012070  -0.004084
      5       0.014352  -0.073963   0.052360   0.020708  -0.001965  -0.005904
      6       0.107691   0.068630  -0.017470   0.016653   0.001471   0.005979
      7      -0.036190  -0.050249   0.005290  -0.006909  -0.002247   0.002205
      8      -0.076051   0.116908   0.000531  -0.011451  -0.005597  -0.000843
      9      -0.024819  -0.002036   0.001104  -0.003838  -0.000417  -0.000374
     10       0.026309  -0.019577   0.000746   0.003919   0.001281  -0.000559
     11       0.030991  -0.020855  -0.001516   0.002613   0.001286   0.000184
     12       0.038341  -0.024525  -0.001773   0.005385   0.002013  -0.001422
     13      -0.054548   0.034210   0.001478  -0.008162  -0.002179  -0.000364
     14      -0.027098   0.016315   0.003205  -0.004225  -0.002649   0.003147
     15      -0.003470   0.001951   0.001757  -0.002499  -0.001404   0.001428
     16       0.058131  -0.023717  -0.003024   0.012614   0.003435   0.001882
     17      -0.054212   0.019355  -0.000723  -0.005473   0.001101  -0.002764
     18      -0.015943  -0.003532   0.003274   0.000149  -0.000236  -0.001419
     19      -0.034428   0.012568   0.001155  -0.006041  -0.001672  -0.003093
     20       0.022824  -0.024461  -0.002053   0.007495   0.002551  -0.000216
     21       0.072646  -0.040042   0.088356  -0.306179  -0.254399  -0.193036
     22      -0.025118   0.010552   0.041853  -0.073152   0.666755  -0.112164
     23      -0.062992   0.081179  -0.150979   0.418311   0.006014   0.275908
     24      -0.047763  -0.010582  -0.036012   0.155480   0.243435   0.327242
     25       0.006155  -0.025804   0.080141  -0.198972   0.153126   0.614392
     26      -0.065057  -0.039845  -0.127944   0.557379   0.291469   0.007813
     27       0.031004  -0.055467   0.030310  -0.098915  -0.339304   0.602255
     28      -0.007887   0.015909  -0.039348   0.086828  -0.043644  -0.101820
     29      -0.104862  -0.047764  -0.119878   0.463835  -0.444190  -0.107020
     30      -0.119534   0.175390   0.302684   0.062643  -0.010987   0.001465
     31       0.034526   0.099110   0.549776   0.179363  -0.006303  -0.004206
     32      -0.174745   0.218118  -0.231830  -0.138985  -0.054497   0.025572
     33       0.144468   0.398996   0.449659   0.133707  -0.016277  -0.000056
     34      -0.028624  -0.110674  -0.196232  -0.060420  -0.005357  -0.009444
     35       0.132153   0.361683  -0.472050  -0.149933   0.046025   0.032403
     36      -0.718768  -0.405987   0.080905  -0.068265   0.002586  -0.002445
     37       0.152666   0.189165  -0.028519   0.013696  -0.009935   0.007965
     38       0.361906  -0.564676   0.020504   0.032674   0.015267   0.004396
     39      -0.163023   0.073979   0.008821  -0.018527  -0.005773  -0.001055
     40       0.174966  -0.077262  -0.008458   0.017743   0.005789  -0.003160
     41       0.179187  -0.085806  -0.004891   0.019395   0.004137   0.001761
     42      -0.033483   0.012792   0.002150  -0.008019  -0.002169   0.001759
     43      -0.178295   0.075395   0.001334  -0.013602   0.001479  -0.002700
     44       0.239149  -0.105406  -0.008630   0.026963   0.005532   0.003610
                 36         37         38         39         40         41    
      0       0.000243   0.000161   0.002094  -0.001510  -0.001169  -0.000284
      1       0.000790  -0.000766   0.000882   0.003089   0.000589   0.000126
      2       0.001818  -0.000401  -0.001128   0.001104   0.000709   0.000226
      3      -0.011362   0.002951  -0.055754   0.028904  -0.000090   0.000038
      4      -0.000407   0.009018  -0.030223  -0.088913   0.000081   0.000044
      5      -0.004843  -0.000020   0.024999  -0.025950   0.000109   0.000068
      6       0.014465  -0.024937  -0.001577  -0.001700  -0.000558  -0.000673
      7      -0.031188  -0.081605  -0.006806  -0.006441  -0.000339   0.002186
      8       0.006729  -0.011192  -0.000650  -0.001312   0.001473  -0.000188
      9      -0.024805   0.000412  -0.000033   0.000055  -0.000421  -0.000626
     10       0.028518   0.000100   0.000083   0.000185   0.000658   0.001260
     11       0.034290   0.001680   0.000034   0.000134   0.000289   0.000213
     12       0.214907  -0.000749  -0.000077  -0.000128   0.000204  -0.004670
     13      -0.063594   0.000573   0.000172   0.000089   0.044330  -0.037428
     14      -0.413428  -0.000086   0.000025   0.000020  -0.050537   0.052126
     15      -0.175784  -0.000526   0.000008  -0.000059   0.031574   0.043303
     16      -0.055794   0.000419   0.000026   0.000200  -0.036809  -0.044615
     17       0.427029  -0.000317  -0.000001  -0.000211  -0.025678  -0.042548
     18       0.009874   0.001511   0.000364  -0.000284   0.000083  -0.000233
     19       0.026317   0.000526  -0.000117   0.000264  -0.000838   0.001102
     20      -0.039185  -0.000949  -0.000228   0.000153   0.000694  -0.000462
     21       0.002412   0.001789  -0.004440  -0.003649  -0.003266  -0.001307
     22      -0.026045   0.001661  -0.001837  -0.000509  -0.001387  -0.000649
     23       0.015167  -0.001789   0.003712  -0.001695  -0.002551  -0.000991
     24       0.000210  -0.006699  -0.015812   0.021798   0.018727   0.005147
     25       0.022801   0.001752   0.009284  -0.014910  -0.010890  -0.003261
     26      -0.026084   0.003950   0.004109  -0.001438  -0.009400  -0.002410
     27       0.029673  -0.002693  -0.000562  -0.001902   0.000293   0.000181
     28      -0.004456   0.005840  -0.013821  -0.017333   0.004185   0.001876
     29      -0.006548  -0.004109  -0.001747  -0.006574  -0.000386  -0.000066
     30       0.013067  -0.002924   0.412844  -0.530220   0.001696   0.000669
     31       0.016830   0.000989  -0.384325   0.471069  -0.001210  -0.000345
     32       0.010442  -0.003816  -0.262603   0.326506  -0.000823  -0.000257
     33       0.040455  -0.027854   0.232110   0.195455   0.000114  -0.000368
     34      -0.016123  -0.103655   0.739068   0.580133  -0.000005  -0.000802
     35       0.017170   0.008486  -0.025927  -0.021893   0.000076  -0.000068
     36       0.019038   0.288211   0.025939   0.022728   0.000482  -0.002228
     37      -0.039760   0.937966   0.077548   0.062654   0.001604  -0.006517
     38       0.014600   0.133439   0.012201   0.011563   0.000049  -0.001024
     39      -0.197535  -0.001272  -0.000239  -0.000273   0.000156   0.003094
     40       0.485570   0.005010   0.001085   0.000185  -0.507802   0.419265
     41      -0.063469  -0.005496  -0.001268  -0.000105   0.570716  -0.479223
     42      -0.176856  -0.004149  -0.000231  -0.001236  -0.367521  -0.440360
     43       0.478928   0.004244   0.000139   0.001404   0.423646   0.502218
     44      -0.093389   0.001709  -0.000143   0.000876   0.306159   0.372139
                  42         43         44    
      0      -0.044381  -0.038363  -0.053771
      1       0.019555   0.054197  -0.054078
      2       0.031396  -0.019619  -0.026426
      3      -0.002122  -0.000262  -0.000230
      4       0.000885   0.001879  -0.001147
      5       0.003643   0.000353   0.000175
      6       0.000956  -0.000149   0.000222
      7      -0.001010  -0.000664   0.000255
      8      -0.000160  -0.000002   0.000408
      9      -0.000372   0.000063   0.000004
     10       0.000426   0.000019  -0.000035
     11       0.000060   0.000187   0.000063
     12       0.000196  -0.000025   0.000004
     13      -0.001315  -0.000142  -0.000012
     14       0.000740   0.000142   0.000002
     15      -0.001180  -0.000090  -0.000007
     16       0.001783   0.000340   0.000046
     17       0.000730  -0.000092  -0.000027
     18      -0.000190   0.000070   0.000066
     19       0.000014  -0.000092  -0.000085
     20       0.000544   0.000300   0.000050
     21      -0.171797   0.400273   0.655392
     22      -0.066109   0.167833   0.245909
     23      -0.113896   0.276206   0.453029
     24       0.773248   0.230981   0.033485
     25      -0.434060  -0.122483  -0.033814
     26      -0.329803  -0.106740  -0.023429
     27       0.021966  -0.098888   0.052755
     28       0.228623  -0.794952   0.536204
     29      -0.021557   0.092723  -0.069641
     30       0.015967   0.006991  -0.000807
     31      -0.015684  -0.008794   0.002017
     32      -0.018605  -0.005674   0.000784
     33       0.000701  -0.003061   0.005641
     34       0.001788  -0.015415   0.015266
     35      -0.002997   0.004842  -0.001998
     36       0.000348   0.000669  -0.000225
     37       0.006189   0.004439  -0.002088
     38       0.001336   0.000195   0.000022
     39      -0.000393  -0.000023  -0.000022
     40       0.009417   0.001112   0.000037
     41      -0.009784  -0.001079  -0.000048
     42       0.011212   0.000310  -0.000003
     43      -0.012964  -0.000526   0.000037
     44      -0.009576  -0.000369   0.000057


-----------
IR SPECTRUM
-----------

 Mode    freq (cm**-1)   T**2         TX         TY         TZ
-------------------------------------------------------------------
   6:        92.18   10.960876  ( -0.233186  -3.300642   0.110740)
   7:       129.28    7.612953  (  2.530100  -0.786258   0.770290)
   8:       232.43   18.786990  (  3.731935  -0.812127   2.049415)
   9:       259.03    0.559161  ( -0.406133   0.500733   0.378792)
  10:       423.67   33.804941  (  2.971204  -0.347038   4.985625)
  11:       483.29    4.993060  (  1.812481   0.999781  -0.841672)
  12:       543.27    3.406361  (  0.361722   0.067633  -1.808575)
  13:       739.82   42.176079  (  5.440833   0.402728   3.522956)
  14:       750.49   35.092071  ( -4.215843  -3.871324  -1.526954)
  15:       829.09   11.511650  ( -1.184339   0.268698  -3.168090)
  16:       854.13    2.859195  ( -1.604550  -0.434062  -0.310167)
  17:       891.22   35.205598  ( -1.286361  -0.714468   5.748079)
  18:       927.48   26.275292  (  3.458997   3.236221   1.958955)
  19:       966.62   31.369557  (  4.940697  -2.529646  -0.748309)
  20:      1001.88   61.545795  (  4.218640   0.233567  -6.610168)
  21:      1026.11   16.406782  (  3.498992  -1.667336   1.176363)
  22:      1067.65   12.260231  (  1.096306   2.592440   2.082690)
  23:      1093.39   46.942703  (  4.677991  -3.231529   3.823130)
  24:      1129.36   20.406285  ( -2.481418   3.370536  -1.699512)
  25:      1162.56    8.124542  (  1.919895  -1.939645   0.822388)
  26:      1217.55  209.933310  ( -7.153350  12.041353  -3.710622)
  27:      1282.71    0.122601  ( -0.134335   0.063980   0.316957)
  28:      1327.91   16.312715  (  1.713640  -3.654015   0.155973)
  29:      1362.64    2.198583  ( -0.624250   0.783750  -1.092992)
  30:      1384.57   17.132391  (  2.947083  -1.243674  -2.626855)
  31:      1418.05   25.116292  (  3.850294  -1.640040   2.757135)
  32:      1482.12   27.143776  (  3.573351   2.063071  -3.180987)
  33:      1490.16  175.948405  (  1.303925  -2.640938  12.933431)
  34:      1650.11   33.557607  ( -2.199123   5.342456   0.423827)
  35:      1668.49   39.979466  (  5.706984   2.055906   1.784110)
  36:      1715.04   28.992312  (  2.465393  -4.766702   0.438977)
  37:      3066.26   18.930639  (  0.180641  -4.322495   0.462647)
  38:      3114.12    0.399626  (  0.597306  -0.193227   0.074260)
  39:      3186.18    0.235701  (  0.001037   0.325773   0.359962)
  40:      3302.61   22.568114  ( -1.663635  -0.395504   4.432156)
  41:      3327.79    8.126986  ( -1.343819   2.498224  -0.282870)
  42:      3343.92   80.516101  (  7.880362  -3.930011  -1.723663)
  43:      3468.81  128.200300  (  6.621775  -7.756413   4.918379)
  44:      3517.43  116.013608  (  7.481425   6.470708   4.262843)

The first frequency considered to be a vibration is 6
The total number of vibrations considered is 39


--------------------------
THERMOCHEMISTRY AT 298.15K
--------------------------

Temperature         ... 298.15 K
Pressure            ... 1.00 atm
Total Mass          ... 102.11 AMU

Throughout the following assumptions are being made:
  (1) The electronic state is orbitally nondegenerate
  (2) There are no thermally accessible electronically excited states
  (3) Hindered rotations indicated by low frequency modes) are not
      treated as such but are treated as vibrations and this may
      case some error
  (4) All equations used are the standard statistical mechanics
      equations for an ideal gas
  (5) All vibrations are strinctly harmonic


------------
INNER ENERGY
------------

The inner energy is: U= E(el) + E(ZPE) + E(vib) + E(rot) + E(trans)
    E(el)   - is the total energy from the electronic structure calculation
              = E(kin-el) + E(nuc-el) + E(el-el) + E(nuc-nuc)
    E(ZPE)  - the the zero temperature vibrational energy from the frequency calculation
    E(vib)  - the the finite temperature correction to E(ZPE) due to population
              of excietd vibrational states
    E(rot)  - is the rotational thermal energy
    E(trans)- is the translational thermal energy

Summary of contributions to the inner energy U:
Electronic energy                ...   -361.88032750 Eh
Zero point energy                ...      0.12969484 Eh      81.38 kcal/mol
Thermal vibrational correction   ...      0.00384989 Eh       2.42 kcal/mol
Thermal rotational correction    ...      0.00141627 Eh       0.89 kcal/mol
Thermal translational correction ...      0.00141627 Eh       0.89 kcal/mol
-----------------------------------------------------------------------
Total thermal energy                   -361.74395022 Eh


Summary of corrections to the electronic energy:
(perhaps to be used in another calculation)
Total thermal correction                  0.00668244 Eh       4.19 kcal/mol
Non-thermal (ZPE) correction              0.12969484 Eh      81.38 kcal/mol
-----------------------------------------------------------------------
Total correction                          0.13637728 Eh      85.58 kcal/mol


--------
ENTHALPY
--------

The enthalpy is H = U + kB*T
                kB is Boltzmann's constant
Total free energy                 ...   -361.74395022 Eh 
Thermal Enthalpy correction       ...      0.00094421 Eh       0.59 kcal/mol
-----------------------------------------------------------------------
Total Enthalpy                    ...   -361.74300601 Eh


-------
ENTROPY
-------

The entropy contributions are T*S = T*(S(el)+S(vib)+S(rot)+S(trans)
     S(el)   - electronic entropy
     S(vib)  - vibrational entropy
     S(rot)  - rotational entropy
     S(trans)- translational entropy
The entropies will be listed as mutliplied by the temperature to get
units of energy

Electronic entropy                ...      0.00000000 Eh      0.00 kcal/mol
Vibrational entropy               ...      0.00669324 Eh      4.20 kcal/mol
Rotational entropy                ...      0.01181122 Eh      7.41 kcal/mol
Translational entropy             ...      0.01890086 Eh     11.86 kcal/mol
-----------------------------------------------------------------------
Final entropy term                ...      0.03740531 Eh     23.47 kcal/mol


CAUTION: The rotational entropy is not quite correctly treated here
         because it includes a symmetry number that is not yet correctly
         implemented in ORCA!
For a nonlinear molecule the correct rotational entropy is:
    S(rot) = R*(ln(qrot/sn)+1.5)
    R    = 8.31441 J/mol/K = 1.987191683e-3 kcal/mol/K
    qrot = 181334.0034258
    sn is the rotational symmetry number. We have assumed 3 here
       if it is different for your molecule then you should correct
       the printed rotational entropy by manually evaluating the equation
       as given above

For convenience we print out the resulting values for sn=1 - 12:
 sn= 1  qrot/sn=  181334.0034 T*S(rot)=     8.06 kcal/mol T*S(tot)=    24.12 kcal/mol
 sn= 2  qrot/sn=   90667.0017 T*S(rot)=     7.65 kcal/mol T*S(tot)=    23.71 kcal/mol
 sn= 3  qrot/sn=   60444.6678 T*S(rot)=     7.41 kcal/mol T*S(tot)=    23.47 kcal/mol
 sn= 4  qrot/sn=   45333.5009 T*S(rot)=     7.24 kcal/mol T*S(tot)=    23.30 kcal/mol
 sn= 5  qrot/sn=   36266.8007 T*S(rot)=     7.11 kcal/mol T*S(tot)=    23.17 kcal/mol
 sn= 6  qrot/sn=   30222.3339 T*S(rot)=     7.00 kcal/mol T*S(tot)=    23.06 kcal/mol
 sn= 7  qrot/sn=   25904.8576 T*S(rot)=     6.91 kcal/mol T*S(tot)=    22.97 kcal/mol
 sn= 8  qrot/sn=   22666.7504 T*S(rot)=     6.83 kcal/mol T*S(tot)=    22.89 kcal/mol
 sn= 9  qrot/sn=   20148.2226 T*S(rot)=     6.76 kcal/mol T*S(tot)=    22.82 kcal/mol
 sn=10  qrot/sn=   18133.4003 T*S(rot)=     6.70 kcal/mol T*S(tot)=    22.76 kcal/mol
 sn=11  qrot/sn=   16484.9094 T*S(rot)=     6.64 kcal/mol T*S(tot)=    22.70 kcal/mol
 sn=12  qrot/sn=   15111.1670 T*S(rot)=     6.59 kcal/mol T*S(tot)=    22.65 kcal/mol


-------------------
GIBBS FREE ENTHALPY
-------------------

The Gibbs free enthalpy is G = H - T*S

Total enthalpy                    ...   -361.74300601 Eh 
Total entropy correction          ...     -0.03740531 Eh    -23.47 kcal/mol
-----------------------------------------------------------------------
Final Gibbs free enthalpy         ...   -361.78041132 Eh

For completeness - the Gibbs free enthalpy minus the electronic energy
G-E(el)                           ...      0.09991618 Eh     62.70 kcal/mol


Timings for individual modules:

Sum of individual times         ...     1810.410 sec (=  30.173 min)
GTO integral calculation        ...        8.389 sec (=   0.140 min)   0.5 %
SCF iterations                  ...      191.886 sec (=   3.198 min)  10.6 %
SCF Gradient evaluation         ...       95.700 sec (=   1.595 min)   5.3 %
Geometry relaxation             ...        0.172 sec (=   0.003 min)   0.0 %
Analytical frequency calculation...     1514.264 sec (=  25.238 min)  83.6 %
                             ****ORCA TERMINATED NORMALLY****
TOTAL RUN TIME: 0 days 0 hours 30 minutes 12 seconds 90 msec
