
                                 *****************
                                 * O   R   C   A *
                                 *****************

           --- An Ab Initio, DFT and Semiempirical electronic structure package ---

                  #######################################################
                  #                        -***-                        #
                  #  Department of molecular theory and spectroscopy    #
                  #              Directorship: Frank Neese              #
                  # Max Planck Institute for Chemical Energy Conversion #
                  #                  D-45470 Muelheim/Ruhr              #
                  #                       Germany                       #
                  #                                                     #
                  #                  All rights reserved                #
                  #                        -***-                        #
                  #######################################################


                         Program Version 3.0.3 - RELEASE   -


 With contributions from (in alphabetic order):
   Ute Becker             : Parallelization
   Dmytro Bykov           : SCF Hessian
   Dmitry Ganyushin       : Spin-Orbit,Spin-Spin,Magnetic field MRCI
   Andreas Hansen         : Spin unrestricted coupled pair/coupled cluster methods
   Dimitrios Liakos       : Extrapolation schemes; parallel MDCI
   Robert Izsak           : Overlap fitted RIJCOSX, COSX-SCS-MP3
   Christian Kollmar      : KDIIS, OOCD, Brueckner-CCSD(T), CCSD density
   Simone Kossmann        : Meta GGA functionals, TD-DFT gradient, OOMP2, MP2 Hessian
   Taras Petrenko         : DFT Hessian,TD-DFT gradient, ASA and ECA modules, normal mode analysis, Resonance Raman, ABS, FL, XAS/XES, NRVS
   Christoph Reimann      : Effective Core Potentials
   Michael Roemelt        : Restricted open shell CIS
   Christoph Riplinger    : Improved optimizer, TS searches, QM/MM, DLPNO-CCSD
   Barbara Sandhoefer     : DKH picture change effects
   Igor Schapiro          : Molecular dynamics
   Kantharuban Sivalingam : CASSCF convergence, NEVPT2
   Boris Wezisla          : Elementary symmetry handling
   Frank Wennmohs         : Technical directorship


 We gratefully acknowledge several colleagues who have allowed us to
 interface, adapt or use parts of their codes:
   Stefan Grimme, W. Hujo, H. Kruse, T. Risthaus : VdW corrections, initial TS optimization,
                                                   DFT functionals, gCP
   Ed Valeev                                     : LibInt (2-el integral package), F12 methods
   Garnet Chan, S. Sharma, R. Olivares           : DMRG
   Ulf Ekstrom                                   : XCFun DFT Library
   Mihaly Kallay                                 : mrcc  (arbitrary order and MRCC methods)
   Andreas Klamt, Michael Diedenhofen            : otool_cosmo (COSMO solvation model)
   Frank Weinhold                                : gennbo (NPA and NBO analysis)
   Christopher J. Cramer and Donald G. Truhlar   : smd solvation model


 Your calculation uses the libint2 library for the computation of 2-el integrals
 For citations please refer to: http://libint.valeyev.net

 This ORCA versions uses:
   CBLAS   interface :  Fast vector & matrix operations
   LAPACKE interface :  Fast linear algebra routines
   SCALAPACK package :  Parallel linear algebra routines


Your calculation utilizes the basis: Ahlrichs-TZV
Cite in your paper:
H - Kr: A. Schaefer, H. Horn and R. Ahlrichs, J. Chem. Phys. 97, 2571 (1992).

The def2-TZV basis will be loaded
Cite in your paper:
 	F. Weigend, R. Ahlrichs, Phys. Chem. Chem. Phys. 2005, 7, 3297.

================================================================================
                                        WARNINGS
                       Please study these warnings very carefully!
================================================================================
Now building the actual basis set
WARNING: Geometry optimizations can change the point-group symmetry!

WARNING: Geometry Optimization
  ===> : Switching off AutoStart
         For restart on a previous wavefunction, please use MOREAD


INFO   : the flag for use of LIBINT has been found!

================================================================================
                                       INPUT FILE
================================================================================
NAME = 6464_+.inp
|  1> ! NORI PBE0 def2-TZVP UseSym TightOPT Freq TightSCF Grid3 FinalGrid5 XYZFile
|  2> % pal
|  3>     nprocs 8
|  4> end
|  5> %method
|  6>     SymThresh 5.0e-2
|  7> end
|  8> % geom 
|  9>     MaxIter 10
| 10> end 
| 11> % maxcore 2000
| 12> % output
| 13>     printlevel mini
| 14>     print[ P_Basis ] 0
| 15>     print[ P_SCFInfo ] 1
| 16>     print[ P_SCFIterInfo ] 1
| 17>     print[ P_OrbEn ] 0
| 18>     print[ P_Cartesian ] 0
| 19> end
| 20> % elprop
| 21>     Dipole false
| 22> end
| 23> *xyz 1 1
| 24>  O        1.0201650642     0.1021573019     0.0023777689 
| 25>  C        2.3978494118     0.0582298658    -0.0116025290 
| 26>  C        2.9794343948     1.1027198134    -0.9944287260 
| 27>  C        2.6317811104     0.1013448545    -2.1228643262 
| 28>  C        2.9974013403    -0.9354081139    -1.0564376053 
| 29>  N        4.4654357138    -0.6549211373    -0.8658763675 
| 30>  C        4.4678133434     0.8794233815    -0.8241343296 
| 31>  H        0.6677933560    -0.5173592550     0.6484308433 
| 32>  H        2.8323300506     0.0262873666     0.9977010061 
| 33>  H        2.6362882080     2.1335176325    -0.9909677704 
| 34>  H        1.5664442140     0.0773809506    -2.3327760977 
| 35>  H        3.2075677821     0.1241117373    -3.0505123236 
| 36>  H        2.7815127326    -2.0008085533    -1.1065854122 
| 37>  H        5.0250828440    -1.0170954320    -1.6369703176 
| 38>  H        4.8289011575    -1.0611626660    -0.0039484776 
| 39>  H        4.8789638534     1.2075574190     0.1296144051 
| 40>  H        5.0781354230     1.2569148343    -1.6424197407 
| 41> *
| 42> 
| 43>                          ****END OF INPUT****
================================================================================

The point group is C1 - hence turning off symmetry
If this is a round-off problem, please increase the symmetry
        detection tolerance (%method SymThresh)


                       *****************************
                       * Geometry Optimization Run *
                       *****************************

Geometry optimization settings:
Update method            Update   .... BFGS
Choice of coordinates    CoordSys .... Redundant Internals
Initial Hessian          InHess   .... Almoef's Model

Convergence Tolerances:
Energy Change            TolE     ....  1.0000e-06 Eh
Max. Gradient            TolMAXG  ....  1.0000e-04 Eh/bohr
RMS Gradient             TolRMSG  ....  3.0000e-05 Eh/bohr
Max. Displacement        TolMAXD  ....  1.0000e-03 bohr
RMS Displacement         TolRMSD  ....  6.0000e-04 bohr

------------------------------------------------------------------------------
                        ORCA OPTIMIZATION COORDINATE SETUP
------------------------------------------------------------------------------

The optimization will be done in new redundant internal coordinates
Making redundant internal coordinates   ...  (new redundants) done
Evaluating the initial hessian          ...  (Almloef) done
Evaluating the coordinates              ...  done
Calculating the B-matrix                .... done
Calculating the G-matrix                .... done
Diagonalizing the G-matrix              .... done
The first mode is                       ....   76
The number of degrees of freedom        ....   45

    -----------------------------------------------------------------
                    Redundant Internal Coordinates


    -----------------------------------------------------------------
         Definition                    Initial Value    Approx d2E/dq
    -----------------------------------------------------------------
      1. B(C   1,O   0)                  1.3785         0.583840   
      2. B(C   2,C   1)                  1.5476         0.350151   
      3. B(C   3,C   2)                  1.5482         0.349390   
      4. B(C   4,C   3)                  1.5316         0.371384   
      5. B(C   4,C   1)                  1.5616         0.332683   
      6. B(N   5,C   4)                  1.5067         0.364507   
      7. B(C   6,C   2)                  1.5146         0.395261   
      8. B(C   6,N   5)                  1.5349         0.328605   
      9. B(H   7,O   0)                  0.9620         0.516241   
     10. B(H   8,C   1)                  1.0993         0.347989   
     11. B(H   9,C   2)                  1.0864         0.364869   
     12. B(H  10,C   3)                  1.0861         0.365317   
     13. B(H  11,C   3)                  1.0921         0.357395   
     14. B(H  12,C   4)                  1.0882         0.362476   
     15. B(H  13,N   5)                  1.0193         0.418183   
     16. B(H  14,N   5)                  1.0198         0.417357   
     17. B(H  15,C   6)                  1.0892         0.361162   
     18. B(H  16,C   6)                  1.0884         0.362242   
     19. A(C   1,O   0,H   7)          110.6337         0.365869   
     20. A(C   4,C   1,H   8)          116.3644         0.316457   
     21. A(O   0,C   1,C   2)          111.1318         0.385650   
     22. A(O   0,C   1,C   4)          114.2547         0.382234   
     23. A(C   2,C   1,H   8)          117.0099         0.319107   
     24. A(C   2,C   1,C   4)           81.9666         0.352358   
     25. A(O   0,C   1,H   8)          112.7445         0.345210   
     26. A(C   3,C   2,C   6)          101.9613         0.362700   
     27. A(C   6,C   2,H   9)          116.7369         0.328054   
     28. A(C   3,C   2,H   9)          123.0298         0.321472   
     29. A(C   1,C   2,C   3)           86.6729         0.355295   
     30. A(C   1,C   2,H   9)          121.3073         0.321587   
     31. A(C   1,C   2,C   6)          101.4421         0.362835   
     32. A(C   2,C   3,H  11)          119.1603         0.320386   
     33. A(H  10,C   3,H  11)          110.6992         0.291152   
     34. A(C   4,C   3,H  11)          118.6663         0.323605   
     35. A(C   2,C   3,C   4)           82.9186         0.358867   
     36. A(C   4,C   3,H  10)          110.7196         0.324772   
     37. A(C   2,C   3,H  10)          112.0491         0.321537   
     38. A(C   1,C   4,N   5)           99.8467         0.352577   
     39. A(C   3,C   4,H  12)          125.6812         0.324356   
     40. A(C   1,C   4,H  12)          125.2846         0.318566   
     41. A(C   1,C   4,C   3)           86.7612         0.355891   
     42. A(N   5,C   4,H  12)          112.4196         0.321434   
     43. A(C   3,C   4,N   5)          101.2239         0.359225   
     44. A(C   4,N   5,H  14)          112.3332         0.326174   
     45. A(C   6,N   5,H  13)          112.0187         0.320776   
     46. A(C   4,N   5,H  13)          111.9095         0.326280   
     47. A(C   4,N   5,C   6)          101.0135         0.349680   
     48. A(C   6,N   5,H  14)          112.0031         0.320673   
     49. A(H  13,N   5,H  14)          107.5866         0.299877   
     50. A(C   2,C   6,N   5)           98.2094         0.356706   
     51. A(H  15,C   6,H  16)          110.0094         0.291245   
     52. A(N   5,C   6,H  16)          109.0947         0.316009   
     53. A(C   2,C   6,H  16)          114.5428         0.327664   
     54. A(N   5,C   6,H  15)          108.9988         0.315856   
     55. A(C   2,C   6,H  15)          115.1489         0.327502   
     56. D(H   8,C   1,O   0,H   7)    -43.4284         0.027363   
     57. D(C   4,C   1,O   0,H   7)     92.3815         0.027363   
     58. D(C   2,C   1,O   0,H   7)   -177.0562         0.027363   
     59. D(H   9,C   2,C   1,C   4)    160.9665         0.009877   
     60. D(C   6,C   2,C   1,O   0)    179.3239         0.009877   
     61. D(H   9,C   2,C   1,O   0)     47.9980         0.009877   
     62. D(C   3,C   2,C   1,O   0)    -79.1366         0.009877   
     63. D(H   9,C   2,C   1,H   8)    -83.4744         0.009877   
     64. D(C   6,C   2,C   1,C   4)    -67.7077         0.009877   
     65. D(C   6,C   2,C   1,H   8)     47.8515         0.009877   
     66. D(C   3,C   2,C   1,C   4)     33.8319         0.009877   
     67. D(C   3,C   2,C   1,H   8)    149.3910         0.009877   
     68. D(C   4,C   3,C   2,H   9)   -160.1644         0.009838   
     69. D(C   4,C   3,C   2,C   6)     66.5005         0.009838   
     70. D(H  11,C   3,C   2,H   9)     80.8731         0.009838   
     71. D(H  11,C   3,C   2,C   6)    -52.4619         0.009838   
     72. D(H  10,C   3,C   2,H   9)    -50.6325         0.009838   
     73. D(H  10,C   3,C   2,C   6)    176.0325         0.009838   
     74. D(H  10,C   3,C   2,C   1)     75.0325         0.009838   
     75. D(H  11,C   3,C   2,C   1)   -153.4619         0.009838   
     76. D(C   4,C   3,C   2,C   1)    -34.4994         0.009838   
     77. D(N   5,C   4,C   1,C   2)     66.5927         0.008998   
     78. D(H  12,C   4,C   1,O   0)    -57.1320         0.008998   
     79. D(H  12,C   4,C   1,H   8)     77.0226         0.008998   
     80. D(C   1,C   4,C   3,C   2)     34.1454         0.011021   
     81. D(H  12,C   4,C   1,C   2)   -166.7500         0.008998   
     82. D(N   5,C   4,C   1,O   0)    176.2107         0.008998   
     83. D(C   3,C   4,C   1,H   8)   -150.4736         0.008998   
     84. D(N   5,C   4,C   1,H   8)    -49.6348         0.008998   
     85. D(C   3,C   4,C   1,C   2)    -34.2461         0.008998   
     86. D(C   3,C   4,C   1,O   0)     75.3718         0.008998   
     87. D(H  12,C   4,C   3,H  10)     55.3951         0.011021   
     88. D(H  12,C   4,C   3,C   2)    166.3391         0.011021   
     89. D(N   5,C   4,C   3,H  11)     54.1919         0.011021   
     90. D(N   5,C   4,C   3,H  10)   -176.2027         0.011021   
     91. D(N   5,C   4,C   3,C   2)    -65.2587         0.011021   
     92. D(C   1,C   4,C   3,H  11)    153.5960         0.011021   
     93. D(H  12,C   4,C   3,H  11)    -74.2103         0.011021   
     94. D(C   1,C   4,C   3,H  10)    -76.7986         0.011021   
     95. D(H  14,N   5,C   4,H  12)    -60.1758         0.012201   
     96. D(H  14,N   5,C   4,C   1)     74.7201         0.012201   
     97. D(H  13,N   5,C   4,H  12)     60.9755         0.012201   
     98. D(H  13,N   5,C   4,C   3)    -75.5049         0.012201   
     99. D(H  13,N   5,C   4,C   1)   -164.1286         0.012201   
    100. D(C   6,N   5,C   4,H  12)   -179.6870         0.012201   
    101. D(H  14,N   5,C   4,C   3)    163.3438         0.012201   
    102. D(C   6,N   5,C   4,C   3)     43.8327         0.012201   
    103. D(C   6,N   5,C   4,C   1)    -44.7910         0.012201   
    104. D(H  15,C   6,N   5,H  13)   -120.1418         0.010035   
    105. D(H  15,C   6,N   5,C   4)    120.5991         0.010035   
    106. D(C   2,C   6,N   5,H  14)   -119.3990         0.010035   
    107. D(C   2,C   6,N   5,C   4)      0.3486         0.010035   
    108. D(H  16,C   6,C   2,H   9)    -65.5350         0.012407   
    109. D(H  16,C   6,C   2,C   3)     71.4015         0.012407   
    110. D(H  16,C   6,C   2,C   1)    160.3903         0.012407   
    111. D(H  15,C   6,C   2,H   9)     63.5098         0.012407   
    112. D(H  15,C   6,C   2,C   3)   -159.5537         0.012407   
    113. D(C   2,C   6,N   5,H  13)    119.6076         0.010035   
    114. D(H  15,C   6,C   2,C   1)    -70.5649         0.012407   
    115. D(N   5,C   6,C   2,H   9)    179.0468         0.012407   
    116. D(N   5,C   6,C   2,C   3)    -44.0167         0.012407   
    117. D(H  15,C   6,N   5,H  14)      0.8515         0.010035   
    118. D(N   5,C   6,C   2,C   1)     44.9721         0.012407   
    119. D(H  16,C   6,N   5,H  14)    120.9938         0.010035   
    120. D(H  16,C   6,N   5,H  13)      0.0004         0.010035   
    121. D(H  16,C   6,N   5,C   4)   -119.2587         0.010035   
    -----------------------------------------------------------------

Number of atoms                         .... 17
Number of degrees of freedom            .... 121

         *************************************************************
         *                GEOMETRY OPTIMIZATION CYCLE   1            *
         *************************************************************


           ************************************************************
           *        Program running with 8 parallel MPI-processes     *
           *              working on a common directory               *
           ************************************************************
           ************************************************************
           *              Shut down parallel processing               *
           ************************************************************


           ************************************************************
           *        Program running with 8 parallel MPI-processes     *
           *              working on a common directory               *
           ************************************************************
------------
SCF SETTINGS
------------
Hamiltonian:
 Density Functional     Method          .... DFT(GTOs)
 Exchange Functional    Exchange        .... PBE
   PBE kappa parameter  XKappa          ....  0.804000
 Correlation Functional Correlation     .... PBE
 LDA part of GGA corr.  LDAOpt          .... PW91-LDA
 Gradients option       PostSCFGGA      .... off
 Hybrid DFT is turned on
   Fraction HF Exchange ScalHFX         ....  0.250000
   Scaling of DF-GGA-X  ScalDFX         ....  0.750000
   Scaling of DF-GGA-C  ScalDFC         ....  1.000000
   Scaling of DF-LDA-C  ScalLDAC        ....  1.000000
   Perturbative correction              ....  0.000000
   NL short-range parameter             ....  6.900000


General Settings:
 Integral files         IntName         .... 6464_+
 Hartree-Fock type      HFTyp           .... RHF
 Total Charge           Charge          ....    1
 Multiplicity           Mult            ....    1
 Number of Electrons    NEL             ....   54
 Basis Dimension        Dim             ....  277
 Nuclear Repulsion      ENuc            ....    340.8300606956 Eh

Convergence Acceleration:
 DIIS                   CNVDIIS         .... on
   Start iteration      DIISMaxIt       ....    12
   Startup error        DIISStart       ....  0.200000
   # of expansion vecs  DIISMaxEq       ....     5
   Bias factor          DIISBfac        ....   1.050
   Max. coefficient     DIISMaxC        ....  10.000
 Newton-Raphson         CNVNR           .... off
 SOSCF                  CNVSOSCF        .... on
   Start iteration      SOSCFMaxIt      ....   150
   Startup grad/error   SOSCFStart      ....  0.003300
 Level Shifting         CNVShift        .... on
   Level shift para.    LevelShift      ....    0.2500
   Turn off err/grad.   ShiftErr        ....    0.0010
 Zerner damping         CNVZerner       .... off
 Static damping         CNVDamp         .... on
   Fraction old density DampFac         ....    0.7000
   Max. Damping (<1)    DampMax         ....    0.9800
   Min. Damping (>=0)   DampMin         ....    0.0000
   Turn off err/grad.   DampErr         ....    0.1000
 Fernandez-Rico         CNVRico         .... off

SCF Procedure:
 Maximum # iterations   MaxIter         ....   125
 SCF integral mode      SCFMode         .... Direct
   Integral package                     .... LIBINT
 Reset frequeny         DirectResetFreq ....    20
 Integral Threshold     Thresh          ....  2.500e-11 Eh
 Primitive CutOff       TCut            ....  2.500e-12 Eh

Convergence Tolerance:
 Convergence Check Mode ConvCheckMode   .... Total+1el-Energy
 Energy Change          TolE            ....  1.000e-08 Eh
 1-El. energy change                    ....  1.000e-05 Eh
 Orbital Gradient       TolG            ....  1.000e-05
 Orbital Rotation angle TolX            ....  1.000e-05
 DIIS Error             TolErr          ....  5.000e-07


Diagonalization of the overlap matrix:
Smallest eigenvalue                        ... 3.054e-05
Time for diagonalization                   ...    0.159 sec
Threshold for overlap eigenvalues          ... 1.000e-08
Number of eigenvalues below threshold      ... 0
Time for construction of square roots      ...    0.016 sec
Total time needed                          ...    0.175 sec

-------------------
DFT GRID GENERATION
-------------------

General Integration Accuracy     IntAcc      ...  4.340
Radial Grid Type                 RadialGrid  ... Gauss-Chebyshev
Angular Grid (max. acc.)         AngularGrid ... Lebedev-194
Angular grid pruning method      GridPruning ... 3 (G Style)
Weight generation scheme         WeightScheme... Becke
Basis function cutoff            BFCut       ...    1.0000e-11
Integration weight cutoff        WCut        ...    1.0000e-14
Grids for H and He will be reduced by one unit

# of grid points (after initial pruning)     ...  38362 (   0.0 sec)
# of grid points (after weights+screening)   ...  34801 (   0.1 sec)
nearest neighbour list constructed           ...    0.0 sec
Grid point re-assignment to atoms done       ...    0.0 sec
Grid point division into batches done        ...    0.1 sec
Reduced shell lists constructed in    0.1 sec

Total number of grid points                  ...    34801
Total number of batches                      ...      553
Average number of points per batch           ...       62
Average number of grid points per atom       ...     2047
Average number of shells per batch           ...    92.34 (78.92%)
Average number of basis functions per batch  ...   229.72 (82.93%)
Average number of large shells per batch     ...    76.04 (82.35%)
Average number of large basis fcns per batch ...   190.15 (82.78%)
Maximum spatial batch extension              ...  11.05, 15.38, 12.58 au
Average spatial batch extension              ...   0.20,  0.22,  0.22 au

Time for grid setup =    0.610 sec

Loading Hartree-Fock densities                     ... done
Calculating cut-offs                               ... done
Setting up the integral package                    ... done
Initializing the effective Hamiltonian             ... done
Starting the Coulomb interaction                   ... done (   0.0 sec)
Reading the grid                                   ... done
Mapping shells                                     ... done
Starting the XC term evaluation                    ... done (   0.4 sec)
  promolecular density results
     # of electrons  =     54.994932885
     EX              =    -43.321503021
     EC              =     -1.853732494
     EX+EC           =    -45.175235516
Transforming the Hamiltonian                       ... done (   0.0 sec)
Diagonalizing the Hamiltonian                      ... done (   0.2 sec)
Back transforming the eigenvectors                 ... done (   0.0 sec)
Now organizing SCF variables                       ... done
--------------
SCF ITERATIONS
--------------
ITER       Energy         Delta-E        Max-DP      RMS-DP      [F,P]     Damp
               ***  Starting incremental Fock matrix formation  ***
  0   -325.8437585307   0.000000000000 0.35196272  0.00307484  0.2441171 0.7000
  1   -325.9105508165  -0.066792285829 0.28407187  0.00242538  0.1026756 0.7000
                               ***Turning on DIIS***
  2   -325.9370121187  -0.026461302164 0.27217640  0.00268919  0.0288744 0.0000
  3   -325.9798657229  -0.042853604158 0.30675110  0.00247228  0.0569180 0.0000
  4   -325.9887427362  -0.008877013341 0.07119964  0.00057345  0.0063742 0.0000
  5   -325.9890093221  -0.000266585892 0.02691650  0.00023642  0.0034298 0.0000
                      *** Initiating the SOSCF procedure ***
                           *** Shutting down DIIS ***
                      *** Re-Reading the Fockian *** 
                      *** Removing any level shift *** 
ITER      Energy       Delta-E        Grad      Rot      Max-DP    RMS-DP
  6   -325.98902886  -0.0000195367  0.000116  0.000116  0.006343  0.000053
               *** Restarting incremental Fock matrix formation ***
  7   -325.98903308  -0.0000042223  0.000048  0.000133  0.001401  0.000014
  8   -325.98903316  -0.0000000786  0.000057  0.000065  0.002172  0.000018
  9   -325.98903339  -0.0000002267  0.000008  0.000019  0.000585  0.000005
 10   -325.98903339  -0.0000000033  0.000007  0.000006  0.000029  0.000000
                  ***Gradient check signals convergence***
              ***Rediagonalizing the Fockian in SOSCF/NRSCF***

               *****************************************************
               *                     SUCCESS                       *
               *           SCF CONVERGED AFTER  11 CYCLES          *
               *****************************************************

Setting up the final grid:

General Integration Accuracy     IntAcc      ...  5.010
Radial Grid Type                 RadialGrid  ... Gauss-Chebyshev
Angular Grid (max. acc.)         AngularGrid ... Lebedev-434
Angular grid pruning method      GridPruning ... 3 (G Style)
Weight generation scheme         WeightScheme... Becke
Basis function cutoff            BFCut       ...    1.0000e-11
Integration weight cutoff        WCut        ...    1.0000e-14
Grids for H and He will be reduced by one unit

# of grid points (after initial pruning)     ... 141842 (   0.0 sec)
# of grid points (after weights+screening)   ... 127232 (   1.5 sec)
nearest neighbour list constructed           ...    0.0 sec
Grid point re-assignment to atoms done       ...    0.0 sec
Grid point division into batches done        ...    1.1 sec
Reduced shell lists constructed in    1.4 sec

Total number of grid points                  ...   127232
Total number of batches                      ...     1997
Average number of points per batch           ...       63
Average number of grid points per atom       ...     7484
Average number of shells per batch           ...    91.01 (77.78%)
Average number of basis functions per batch  ...   227.26 (82.04%)
Average number of large shells per batch     ...    74.49 (81.85%)
Average number of large basis fcns per batch ...   185.73 (81.73%)
Maximum spatial batch extension              ...  10.66, 12.99, 11.49 au
Average spatial batch extension              ...   0.13,  0.14,  0.14 au

Final grid set up in    3.5 sec
Final integration                            ... done (   1.5 sec)
Change in XC energy                          ...     0.000403639
Integrated number of electrons               ...    53.999973289
Previous integrated no of electrons          ...    54.000212583
Total Energy       :         -325.98862975 Eh           -8870.60159 eV
  Last Energy change         ...   -2.4414e-09  Tolerance :   1.0000e-08
  Last MAX-Density change    ...    1.0408e-04  Tolerance :   1.0000e-07
             **** THE GBW FILE WAS UPDATED (6464_+.gbw) ****
             **** DENSITY FILE WAS UPDATED (6464_+.scfp.tmp) ****
             **** ENERGY FILE WAS UPDATED (6464_+.en.tmp) ****
Total SCF time: 0 days 0 hours 1 min 40 sec 
           ************************************************************
           *              Shut down parallel processing               *
           ************************************************************

-------------------------   --------------------
FINAL SINGLE POINT ENERGY      -325.988629753494
-------------------------   --------------------



           ************************************************************
           *        Program running with 8 parallel MPI-processes     *
           *              working on a common directory               *
           ************************************************************
------------------------------------------------------------------------------
                         ORCA SCF GRADIENT CALCULATION
------------------------------------------------------------------------------

Gradient of the Kohn-Sham DFT energy:
Kohn-Sham wavefunction type      ... RKS
Hartree-Fock exchange scaling    ...    0.250
Number of operators              ...    1
Number of atoms                  ...   17
Basis set dimensions             ...  277
Integral neglect threshold       ... 2.5e-11
Integral primitive cutoff        ... 2.5e-12

Nuclear repulsion gradient       ... done
One Electron Gradient            ... done
Pre-screening matrix             ... done
Starting the two electron gradient:
Two electron gradient done
Exchange-correlation gradient    ... done

------------------
CARTESIAN GRADIENT
------------------

   1   O   :    0.000077073    0.000024298   -0.000054435
   2   C   :   -0.000375099   -0.000370421    0.000100602
   3   C   :    0.000173178    0.000214373   -0.000036690
   4   C   :   -0.000051837    0.000002236    0.000191625
   5   C   :    0.000214232    0.000145477   -0.000151571
   6   N   :   -0.000015997   -0.000008790    0.000032414
   7   C   :    0.000006123   -0.000106966    0.000127700
   8   H   :   -0.000024891    0.000028620   -0.000011308
   9   H   :    0.000120358    0.000178368   -0.000006444
  10   H   :   -0.000046447    0.000044453   -0.000024831
  11   H   :   -0.000001332    0.000007021   -0.000066823
  12   H   :   -0.000063509   -0.000051802   -0.000125912
  13   H   :    0.000082700   -0.000094597    0.000048963
  14   H   :   -0.000038435   -0.000044960    0.000010051
  15   H   :    0.000036214   -0.000015920   -0.000006867
  16   H   :   -0.000013197    0.000092020    0.000032020
  17   H   :   -0.000079134   -0.000043409   -0.000058494

Norm of the cartesian gradient     ...    0.000811056
RMS gradient                       ...    0.000113571
MAX gradient                       ...    0.000375099

-------
TIMINGS
-------

Total SCF gradient time            ...       43.412 sec

One electron gradient       ....       0.134 sec  (  0.3%)
Prescreening matrices       ....       0.420 sec  (  1.0%)
Two electron gradient       ....      36.962 sec  ( 85.1%)
XC gradient                 ....       3.861 sec  (  8.9%)
           ************************************************************
           *              Shut down parallel processing               *
           ************************************************************
------------------------------------------------------------------------------
                         ORCA GEOMETRY RELAXATION STEP
------------------------------------------------------------------------------

Reading the OPT-File                    .... done
Getting information on internals        .... done
Copying old internal coords+grads       .... done
Making the new internal coordinates     .... (new redundants).... done
Validating the new internal coordinates .... (new redundants).... done
Calculating the B-matrix                .... done
Calculating the G,G- and P matrices     .... done
Transforming gradient to internals      .... done
Projecting the internal gradient        .... done
Number of atoms                         ....  17
Number of internal coordinates          .... 121
Current Energy                          ....  -325.988629753 Eh
Current gradient norm                   ....     0.000811056 Eh/bohr
Maximum allowed component of the step   ....  0.300
Current trust radius                    ....  0.300
Evaluating the initial hessian          ....  (Almloef) done
Projecting the Hessian                  .... done
Forming the augmented Hessian           .... done
Diagonalizing the augmented Hessian     .... done
Last element of RFO vector              ....  0.999995475
Lowest eigenvalues of augmented Hessian:
 -0.000000972  0.015020569  0.027363453  0.035266481  0.047653259
Length of the computed step             ....  0.003008451
The final length of the internal step   ....  0.003008451
Converting the step to cartesian space:
 Initial RMS(Int)=    0.0002734955
Transforming coordinates:
 Iter   0:  RMS(Cart)=    0.0004508822 RMS(Int)=    0.0002734868
 Iter   1:  RMS(Cart)=    0.0000001180 RMS(Int)=    0.0000000760
 Iter   2:  RMS(Cart)=    0.0000000001 RMS(Int)=    0.0000000000
done
Storing new coordinates                 .... done

                                .--------------------.
          ----------------------|Geometry convergence|---------------------
          Item                value                 Tolerance   Converged
          -----------------------------------------------------------------
          RMS gradient        0.00004175            0.00003000      NO
          MAX gradient        0.00021509            0.00010000      NO
          RMS step            0.00027350            0.00060000      YES
          MAX step            0.00086822            0.00100000      YES
          ....................................................
          Max(Bonds)      0.0003      Max(Angles)    0.02
          Max(Dihed)        0.05      Max(Improp)    0.00
          -----------------------------------------------------------------

The optimization has not yet converged - more geometry cycles are needed


    ---------------------------------------------------------------------------
                         Redundant Internal Coordinates
                            (Angstroem and degrees)

        Definition                    Value    dE/dq     Step     New-Value
    ----------------------------------------------------------------------------
     1. B(C   1,O   0)                1.3785 -0.000090  0.0001    1.3785   
     2. B(C   2,C   1)                1.5476 -0.000043  0.0001    1.5478   
     3. B(C   3,C   2)                1.5482  0.000054 -0.0001    1.5481   
     4. B(C   4,C   3)                1.5316  0.000093 -0.0002    1.5314   
     5. B(C   4,C   1)                1.5616  0.000037 -0.0001    1.5615   
     6. B(N   5,C   4)                1.5067 -0.000066  0.0001    1.5068   
     7. B(C   6,C   2)                1.5146 -0.000127  0.0002    1.5148   
     8. B(C   6,N   5)                1.5349  0.000047 -0.0001    1.5349   
     9. B(H   7,O   0)                0.9620 -0.000026  0.0000    0.9620   
    10. B(H   8,C   1)                1.0993  0.000215 -0.0003    1.0990   
    11. B(H   9,C   2)                1.0864  0.000052 -0.0001    1.0863   
    12. B(H  10,C   3)                1.0861 -0.000058  0.0001    1.0862   
    13. B(H  11,C   3)                1.0921  0.000149 -0.0002    1.0918   
    14. B(H  12,C   4)                1.0882  0.000131 -0.0002    1.0880   
    15. B(H  13,N   5)                1.0193  0.000019 -0.0000    1.0193   
    16. B(H  14,N   5)                1.0198  0.000023 -0.0000    1.0198   
    17. B(H  15,C   6)                1.0892  0.000081 -0.0001    1.0891   
    18. B(H  16,C   6)                1.0884  0.000101 -0.0001    1.0882   
    19. A(C   1,O   0,H   7)          110.63 -0.000009    0.00    110.64   
    20. A(C   4,C   1,H   8)          116.36 -0.000035    0.00    116.37   
    21. A(O   0,C   1,C   2)          111.13  0.000031   -0.01    111.12   
    22. A(O   0,C   1,C   4)          114.25  0.000032   -0.01    114.25   
    23. A(C   2,C   1,H   8)          117.01 -0.000046    0.01    117.02   
    24. A(C   2,C   1,C   4)           81.97  0.000041   -0.01     81.95   
    25. A(O   0,C   1,H   8)          112.74 -0.000009    0.01    112.75   
    26. A(C   3,C   2,C   6)          101.96 -0.000019    0.01    101.97   
    27. A(C   6,C   2,H   9)          116.74 -0.000015    0.01    116.74   
    28. A(C   3,C   2,H   9)          123.03  0.000007   -0.00    123.03   
    29. A(C   1,C   2,C   3)           86.67 -0.000013    0.01     86.68   
    30. A(C   1,C   2,H   9)          121.31  0.000006   -0.01    121.30   
    31. A(C   1,C   2,C   6)          101.44  0.000038   -0.02    101.42   
    32. A(C   2,C   3,H  11)          119.16 -0.000005    0.01    119.17   
    33. A(H  10,C   3,H  11)          110.70 -0.000009    0.00    110.70   
    34. A(C   4,C   3,H  11)          118.67 -0.000004    0.00    118.67   
    35. A(C   2,C   3,C   4)           82.92 -0.000005   -0.00     82.92   
    36. A(C   4,C   3,H  10)          110.72  0.000017   -0.01    110.71   
    37. A(C   2,C   3,H  10)          112.05  0.000010   -0.01    112.04   
    38. A(C   1,C   4,N   5)           99.85  0.000017   -0.02     99.82   
    39. A(C   3,C   4,H  12)          125.68  0.000020   -0.00    125.68   
    40. A(C   1,C   4,H  12)          125.28  0.000020   -0.00    125.28   
    41. A(C   1,C   4,C   3)           86.76 -0.000051    0.02     86.78   
    42. A(N   5,C   4,H  12)          112.42  0.000010   -0.01    112.41   
    43. A(C   3,C   4,N   5)          101.22 -0.000030    0.02    101.24   
    44. A(C   4,N   5,H  14)          112.33  0.000003   -0.00    112.33   
    45. A(C   6,N   5,H  13)          112.02  0.000016    0.00    112.02   
    46. A(C   4,N   5,H  13)          111.91 -0.000024    0.01    111.92   
    47. A(C   4,N   5,C   6)          101.01 -0.000003   -0.00    101.01   
    48. A(C   6,N   5,H  14)          112.00  0.000001   -0.01    111.99   
    49. A(H  13,N   5,H  14)          107.59  0.000007   -0.00    107.58   
    50. A(C   2,C   6,N   5)           98.21  0.000028   -0.01     98.20   
    51. A(H  15,C   6,H  16)          110.01  0.000018   -0.00    110.01   
    52. A(N   5,C   6,H  16)          109.09  0.000007    0.00    109.10   
    53. A(C   2,C   6,H  16)          114.54 -0.000031    0.01    114.56   
    54. A(N   5,C   6,H  15)          109.00  0.000007   -0.01    108.98   
    55. A(C   2,C   6,H  15)          115.15 -0.000025    0.01    115.16   
    56. D(H   8,C   1,O   0,H   7)    -43.43  0.000012   -0.03    -43.46   
    57. D(C   4,C   1,O   0,H   7)     92.38 -0.000017   -0.03     92.36   
    58. D(C   2,C   1,O   0,H   7)   -177.06  0.000057   -0.05   -177.11   
    59. D(H   9,C   2,C   1,C   4)    160.97  0.000033   -0.01    160.95   
    60. D(C   6,C   2,C   1,O   0)    179.32  0.000004   -0.02    179.31   
    61. D(H   9,C   2,C   1,O   0)     48.00 -0.000016   -0.00     48.00   
    62. D(C   3,C   2,C   1,O   0)    -79.14 -0.000019   -0.00    -79.14   
    63. D(H   9,C   2,C   1,H   8)    -83.47  0.000010   -0.02    -83.49   
    64. D(C   6,C   2,C   1,C   4)    -67.71  0.000053   -0.03    -67.74   
    65. D(C   6,C   2,C   1,H   8)     47.85  0.000030   -0.03     47.82   
    66. D(C   3,C   2,C   1,C   4)     33.83  0.000030   -0.01     33.82   
    67. D(C   3,C   2,C   1,H   8)    149.39  0.000007   -0.02    149.38   
    68. D(C   4,C   3,C   2,H   9)   -160.16 -0.000022    0.01   -160.15   
    69. D(C   4,C   3,C   2,C   6)     66.50  0.000014   -0.01     66.49   
    70. D(H  11,C   3,C   2,H   9)     80.87 -0.000014    0.01     80.89   
    71. D(H  11,C   3,C   2,C   6)    -52.46  0.000022   -0.01    -52.47   
    72. D(H  10,C   3,C   2,H   9)    -50.63 -0.000006    0.01    -50.63   
    73. D(H  10,C   3,C   2,C   6)    176.03  0.000031   -0.01    176.02   
    74. D(H  10,C   3,C   2,C   1)     75.03 -0.000005    0.00     75.04   
    75. D(H  11,C   3,C   2,C   1)   -153.46 -0.000014    0.01   -153.45   
    76. D(C   4,C   3,C   2,C   1)    -34.50 -0.000022    0.01    -34.49   
    77. D(N   5,C   4,C   1,C   2)     66.59 -0.000062    0.03     66.63   
    78. D(H  12,C   4,C   1,O   0)    -57.13  0.000037   -0.02    -57.15   
    79. D(H  12,C   4,C   1,H   8)     77.02  0.000020   -0.01     77.01   
    80. D(C   1,C   4,C   3,C   2)     34.15  0.000005   -0.01     34.14   
    81. D(H  12,C   4,C   1,C   2)   -166.75 -0.000015   -0.00   -166.75   
    82. D(N   5,C   4,C   1,O   0)    176.21 -0.000011    0.02    176.23   
    83. D(C   3,C   4,C   1,H   8)   -150.47  0.000012    0.00   -150.47   
    84. D(N   5,C   4,C   1,H   8)    -49.63 -0.000028    0.02    -49.61   
    85. D(C   3,C   4,C   1,C   2)    -34.25 -0.000023    0.01    -34.23   
    86. D(C   3,C   4,C   1,O   0)     75.37  0.000029   -0.01     75.37   
    87. D(H  12,C   4,C   3,H  10)     55.40 -0.000012    0.02     55.41   
    88. D(H  12,C   4,C   3,C   2)    166.34 -0.000004    0.01    166.35   
    89. D(N   5,C   4,C   3,H  11)     54.19 -0.000013    0.02     54.21   
    90. D(N   5,C   4,C   3,H  10)   -176.20 -0.000013    0.02   -176.18   
    91. D(N   5,C   4,C   3,C   2)    -65.26 -0.000004    0.01    -65.25   
    92. D(C   1,C   4,C   3,H  11)    153.60 -0.000004   -0.00    153.60   
    93. D(H  12,C   4,C   3,H  11)    -74.21 -0.000012    0.02    -74.19   
    94. D(C   1,C   4,C   3,H  10)    -76.80 -0.000004   -0.00    -76.80   
    95. D(H  14,N   5,C   4,H  12)    -60.18  0.000009   -0.02    -60.19   
    96. D(H  14,N   5,C   4,C   1)     74.72  0.000054   -0.04     74.68   
    97. D(H  13,N   5,C   4,H  12)     60.98  0.000002   -0.02     60.96   
    98. D(H  13,N   5,C   4,C   3)    -75.50 -0.000007   -0.02    -75.52   
    99. D(H  13,N   5,C   4,C   1)   -164.13  0.000047   -0.04   -164.17   
   100. D(C   6,N   5,C   4,H  12)   -179.69  0.000008   -0.00   -179.69   
   101. D(H  14,N   5,C   4,C   3)    163.34 -0.000001   -0.02    163.32   
   102. D(C   6,N   5,C   4,C   3)     43.83 -0.000001   -0.01     43.82   
   103. D(C   6,N   5,C   4,C   1)    -44.79  0.000053   -0.03    -44.82   
   104. D(H  15,C   6,N   5,H  13)   -120.14 -0.000032    0.02   -120.12   
   105. D(H  15,C   6,N   5,C   4)    120.60 -0.000009    0.01    120.61   
   106. D(C   2,C   6,N   5,H  14)   -119.40  0.000001    0.02   -119.38   
   107. D(C   2,C   6,N   5,C   4)      0.35  0.000002    0.01      0.36   
   108. D(H  16,C   6,C   2,H   9)    -65.53  0.000016   -0.01    -65.55   
   109. D(H  16,C   6,C   2,C   3)     71.40 -0.000005    0.00     71.40   
   110. D(H  16,C   6,C   2,C   1)    160.39 -0.000014    0.01    160.40   
   111. D(H  15,C   6,C   2,H   9)     63.51 -0.000011    0.00     63.51   
   112. D(H  15,C   6,C   2,C   3)   -159.55 -0.000032    0.02   -159.54   
   113. D(C   2,C   6,N   5,H  13)    119.61 -0.000021    0.02    119.63   
   114. D(H  15,C   6,C   2,C   1)    -70.56 -0.000041    0.03    -70.54   
   115. D(N   5,C   6,C   2,H   9)    179.05  0.000003   -0.01    179.03   
   116. D(N   5,C   6,C   2,C   3)    -44.02 -0.000017    0.00    -44.02   
   117. D(H  15,C   6,N   5,H  14)      0.85 -0.000011    0.02      0.87   
   118. D(N   5,C   6,C   2,C   1)     44.97 -0.000027    0.01     44.98   
   119. D(H  16,C   6,N   5,H  14)    120.99  0.000019    0.00    121.00   
   120. D(H  16,C   6,N   5,H  13)      0.00 -0.000002    0.01      0.01   
   121. D(H  16,C   6,N   5,C   4)   -119.26  0.000021   -0.01   -119.26   
    ----------------------------------------------------------------------------

         *************************************************************
         *                GEOMETRY OPTIMIZATION CYCLE   2            *
         *************************************************************
---------------------------------
CARTESIAN COORDINATES (ANGSTROEM)
---------------------------------
  O      0.000154    0.000344    2.123229
  C      0.326255    0.400304    0.844928
  C     -0.931506    0.475127   -0.053977
  C     -0.822781   -1.064011   -0.179989
  C      0.679563   -0.772593   -0.123464
  N      0.877184    0.000120   -1.401852
  C     -0.335082    0.940827   -1.366246
  H      0.779355   -0.000431    2.687365
  H      1.002853    1.266193    0.830088
  H     -1.834087    0.979622    0.279152
  H     -1.149998   -1.571093    0.723094
  H     -1.228037   -1.555235   -1.066874
  H      1.463117   -1.509268    0.041272
  H      0.865220   -0.607947   -2.219790
  H      1.758499    0.513124   -1.412223
  H      0.016036    1.971714   -1.375244
  H     -0.957959    0.752048   -2.238398

----------------------------
CARTESIAN COORDINATES (A.U.)
----------------------------
  NO LB      ZA    FRAG    MASS        X           Y           Z
   0 O     8.0000    0    15.999          0.000291640062082          0.000649543197577          4.012321525929762
   1 C     6.0000    0    12.011          0.616532623363433          0.756465783402864          1.596682512190152
   2 C     6.0000    0    12.011         -1.760291777802134          0.897859500842345         -0.102001533217998
   3 C     6.0000    0    12.011         -1.554830938753968         -2.010690272043323         -0.340129976374933
   4 C     6.0000    0    12.011          1.284188043352353         -1.459988861077206         -0.233313642255910
   5 N     7.0000    0    14.007          1.657636916304578          0.000226905138410         -2.649115759955077
   6 C     6.0000    0    12.011         -0.633213098793264          1.777905352513831         -2.581831132262173
   7 H     1.0000    0     1.008          1.472766611798332         -0.000813602818964          5.078383073975560
   8 H     1.0000    0     1.008          1.895116927515544          2.392758800621019          1.568639011379267
   9 H     1.0000    0     1.008         -3.465923072859669          1.851217367005978          0.527519911984805
  10 H     1.0000    0     1.008         -2.173181205608905         -2.968935849371988          1.366450173152638
  11 H     1.0000    0     1.008         -2.320653577606116         -2.938968110802626         -2.016100419789066
  12 H     1.0000    0     1.008          2.764889786205692         -2.852102267480670          0.077993328754463
  13 H     1.0000    0     1.008          1.635029577711604         -1.148854124141855         -4.194795071608611
  14 H     1.0000    0     1.008          3.323082407327219          0.969664156517819         -2.668714271696881
  15 H     1.0000    0     1.008          0.030303950967489          3.725999940798759         -2.598834606421759
  16 H     1.0000    0     1.008         -1.810280648390115          1.421164178200099         -4.229960106384478

--------------------------------
INTERNAL COORDINATES (ANGSTROEM)
--------------------------------
 O      0   0   0   0.000000     0.000     0.000
 C      1   0   0   1.378537     0.000     0.000
 C      2   1   0   1.547770   111.121     0.000
 C      3   2   1   1.548111    86.683   280.863
 C      4   3   2   1.531391    82.917   325.512
 N      5   4   3   1.506789   101.241   294.753
 C      3   2   1   1.514810   101.422   179.308
 H      1   2   3   0.961978   110.635   182.894
 H      2   1   3   1.098985   112.753   133.646
 H      3   2   1   1.086344   121.300    47.997
 H      4   3   2   1.086169   112.044    75.037
 H      4   3   2   1.091833   119.167   206.548
 H      5   4   3   1.088018   125.679   166.349
 H      6   5   4   1.019270   111.923   284.476
 H      6   5   4   1.019803   112.330   163.322
 H      7   3   2   1.089079   115.157   289.463
 H      7   3   2   1.088239   114.556   160.402

---------------------------
INTERNAL COORDINATES (A.U.)
---------------------------
 O      0   0   0   0.000000     0.000     0.000
 C      1   0   0   2.605057     0.000     0.000
 C      2   1   0   2.924861   111.121     0.000
 C      3   2   1   2.925505    86.683   280.863
 C      4   3   2   2.893909    82.917   325.512
 N      5   4   3   2.847419   101.241   294.753
 C      3   2   1   2.862576   101.422   179.308
 H      1   2   3   1.817876   110.635   182.894
 H      2   1   3   2.076781   112.753   133.646
 H      3   2   1   2.052892   121.300    47.997
 H      4   3   2   2.052561   112.044    75.037
 H      4   3   2   2.063265   119.167   206.548
 H      5   4   3   2.056057   125.679   166.349
 H      6   5   4   1.926142   111.923   284.476
 H      6   5   4   1.927149   112.330   163.322
 H      7   3   2   2.058061   115.157   289.463
 H      7   3   2   2.056473   114.556   160.402



           ************************************************************
           *        Program running with 8 parallel MPI-processes     *
           *              working on a common directory               *
           ************************************************************
           ************************************************************
           *              Shut down parallel processing               *
           ************************************************************


           ************************************************************
           *        Program running with 8 parallel MPI-processes     *
           *              working on a common directory               *
           ************************************************************

Diagonalization of the overlap matrix:
Smallest eigenvalue                        ... 3.054e-05
Time for diagonalization                   ...    0.199 sec
Threshold for overlap eigenvalues          ... 1.000e-08
Number of eigenvalues below threshold      ... 0
Time for construction of square roots      ...    0.017 sec
Total time needed                          ...    0.216 sec

-------------------
DFT GRID GENERATION
-------------------

General Integration Accuracy     IntAcc      ...  4.340
Radial Grid Type                 RadialGrid  ... Gauss-Chebyshev
Angular Grid (max. acc.)         AngularGrid ... Lebedev-194
Angular grid pruning method      GridPruning ... 3 (G Style)
Weight generation scheme         WeightScheme... Becke
Basis function cutoff            BFCut       ...    1.0000e-11
Integration weight cutoff        WCut        ...    1.0000e-14
Grids for H and He will be reduced by one unit

# of grid points (after initial pruning)     ...  38362 (   0.0 sec)
# of grid points (after weights+screening)   ...  34801 (   0.1 sec)
nearest neighbour list constructed           ...    0.0 sec
Grid point re-assignment to atoms done       ...    0.0 sec
Grid point division into batches done        ...    0.1 sec
Reduced shell lists constructed in    0.1 sec

Total number of grid points                  ...    34801
Total number of batches                      ...      553
Average number of points per batch           ...       62
Average number of grid points per atom       ...     2047
Average number of shells per batch           ...    92.34 (78.92%)
Average number of basis functions per batch  ...   229.75 (82.94%)
Average number of large shells per batch     ...    76.00 (82.31%)
Average number of large basis fcns per batch ...   189.89 (82.65%)
Maximum spatial batch extension              ...  11.05, 15.38, 12.58 au
Average spatial batch extension              ...   0.20,  0.22,  0.22 au

Time for grid setup =    0.402 sec

--------------
SCF ITERATIONS
--------------
ITER       Energy         Delta-E        Max-DP      RMS-DP      [F,P]     Damp
               ***  Starting incremental Fock matrix formation  ***
                      *** Initiating the SOSCF procedure ***
                      *** Re-Reading the Fockian *** 
                      *** Removing any level shift *** 
ITER      Energy       Delta-E        Grad      Rot      Max-DP    RMS-DP
  0   -325.98903338 -325.9890333848  0.000043  0.000043  0.000611  0.000006
               *** Restarting incremental Fock matrix formation ***
  1   -325.98903369  -0.0000003096  0.000012  0.000029  0.000341  0.000003
  2   -325.98903372  -0.0000000223  0.000010  0.000015  0.000168  0.000002
  3   -325.98903372  -0.0000000067  0.000005  0.000008  0.000059  0.000001
                  ***Gradient check signals convergence***
              ***Rediagonalizing the Fockian in SOSCF/NRSCF***

               *****************************************************
               *                     SUCCESS                       *
               *           SCF CONVERGED AFTER   4 CYCLES          *
               *****************************************************

Setting up the final grid:

General Integration Accuracy     IntAcc      ...  5.010
Radial Grid Type                 RadialGrid  ... Gauss-Chebyshev
Angular Grid (max. acc.)         AngularGrid ... Lebedev-434
Angular grid pruning method      GridPruning ... 3 (G Style)
Weight generation scheme         WeightScheme... Becke
Basis function cutoff            BFCut       ...    1.0000e-11
Integration weight cutoff        WCut        ...    1.0000e-14
Grids for H and He will be reduced by one unit

# of grid points (after initial pruning)     ... 141842 (   0.0 sec)
# of grid points (after weights+screening)   ... 127235 (   0.3 sec)
nearest neighbour list constructed           ...    0.0 sec
Grid point re-assignment to atoms done       ...    0.0 sec
Grid point division into batches done        ...    1.1 sec
Reduced shell lists constructed in    1.4 sec

Total number of grid points                  ...   127235
Total number of batches                      ...     1997
Average number of points per batch           ...       63
Average number of grid points per atom       ...     7484
Average number of shells per batch           ...    90.99 (77.77%)
Average number of basis functions per batch  ...   227.12 (81.99%)
Average number of large shells per batch     ...    74.46 (81.83%)
Average number of large basis fcns per batch ...   185.68 (81.75%)
Maximum spatial batch extension              ...  10.66, 12.99, 11.49 au
Average spatial batch extension              ...   0.13,  0.14,  0.14 au

Final grid set up in    2.0 sec
Final integration                            ... done (   1.1 sec)
Change in XC energy                          ...     0.000403308
Integrated number of electrons               ...    53.999973463
Previous integrated no of electrons          ...    54.000210571
Total Energy       :         -325.98863042 Eh           -8870.60161 eV
  Last Energy change         ...   -1.5589e-09  Tolerance :   1.0000e-08
  Last MAX-Density change    ...    2.0485e-05  Tolerance :   1.0000e-07
             **** THE GBW FILE WAS UPDATED (6464_+.gbw) ****
             **** DENSITY FILE WAS UPDATED (6464_+.scfp.tmp) ****
             **** ENERGY FILE WAS UPDATED (6464_+.en.tmp) ****
Total SCF time: 0 days 0 hours 0 min 40 sec 
           ************************************************************
           *              Shut down parallel processing               *
           ************************************************************

-------------------------   --------------------
FINAL SINGLE POINT ENERGY      -325.988630417028
-------------------------   --------------------



           ************************************************************
           *        Program running with 8 parallel MPI-processes     *
           *              working on a common directory               *
           ************************************************************
------------------------------------------------------------------------------
                         ORCA SCF GRADIENT CALCULATION
------------------------------------------------------------------------------

Gradient of the Kohn-Sham DFT energy:
Kohn-Sham wavefunction type      ... RKS
Hartree-Fock exchange scaling    ...    0.250
Number of operators              ...    1
Number of atoms                  ...   17
Basis set dimensions             ...  277
Integral neglect threshold       ... 2.5e-11
Integral primitive cutoff        ... 2.5e-12

Nuclear repulsion gradient       ... done
One Electron Gradient            ... done
Pre-screening matrix             ... done
Starting the two electron gradient:
Two electron gradient done
Exchange-correlation gradient    ... done

------------------
CARTESIAN GRADIENT
------------------

   1   O   :    0.000041477   -0.000008701   -0.000041829
   2   C   :   -0.000131756   -0.000085533    0.000036469
   3   C   :    0.000096622    0.000078150   -0.000002937
   4   C   :   -0.000068996   -0.000044726    0.000057717
   5   C   :    0.000117176    0.000042498   -0.000093093
   6   N   :    0.000012658    0.000031692    0.000044644
   7   C   :    0.000004012   -0.000012031    0.000018239
   8   H   :   -0.000006764    0.000025060    0.000005095
   9   H   :    0.000014554    0.000020670   -0.000007861
  10   H   :   -0.000004568    0.000010067   -0.000027258
  11   H   :   -0.000015126   -0.000019386   -0.000021127
  12   H   :   -0.000006738    0.000005485   -0.000016633
  13   H   :   -0.000014783   -0.000005056    0.000024494
  14   H   :   -0.000029182   -0.000021766    0.000017838
  15   H   :    0.000010037   -0.000011598   -0.000013887
  16   H   :   -0.000006982    0.000009393    0.000010664
  17   H   :   -0.000011643   -0.000014218    0.000009464

Norm of the cartesian gradient     ...    0.000300353
RMS gradient                       ...    0.000042058
MAX gradient                       ...    0.000131756

-------
TIMINGS
-------

Total SCF gradient time            ...       42.272 sec

One electron gradient       ....       0.182 sec  (  0.4%)
Prescreening matrices       ....       0.434 sec  (  1.0%)
Two electron gradient       ....      36.890 sec  ( 87.3%)
XC gradient                 ....       4.122 sec  (  9.8%)
           ************************************************************
           *              Shut down parallel processing               *
           ************************************************************
------------------------------------------------------------------------------
                         ORCA GEOMETRY RELAXATION STEP
------------------------------------------------------------------------------

Reading the OPT-File                    .... done
Getting information on internals        .... done
Copying old internal coords+grads       .... done
Making the new internal coordinates     .... (new redundants).... done
Validating the new internal coordinates .... (new redundants).... done
Calculating the B-matrix                .... done
Calculating the G,G- and P matrices     .... done
Transforming gradient to internals      .... done
Projecting the internal gradient        .... done
Number of atoms                         ....  17
Number of internal coordinates          .... 121
Current Energy                          ....  -325.988630417 Eh
Current gradient norm                   ....     0.000300353 Eh/bohr
Maximum allowed component of the step   ....  0.300
Current trust radius                    ....  0.300
Updating the Hessian (BFGS)             .... done
Forming the augmented Hessian           .... done
Diagonalizing the augmented Hessian     .... done
Last element of RFO vector              ....  0.999996193
Lowest eigenvalues of augmented Hessian:
 -0.000000283  0.014660263  0.024843627  0.035514998  0.042903137
Length of the computed step             ....  0.002759426
The final length of the internal step   ....  0.002759426
Converting the step to cartesian space:
 Initial RMS(Int)=    0.0002508569
Transforming coordinates:
 Iter   0:  RMS(Cart)=    0.0003462371 RMS(Int)=    0.0002508594
 Iter   1:  RMS(Cart)=    0.0000001200 RMS(Int)=    0.0000000803
 Iter   2:  RMS(Cart)=    0.0000000001 RMS(Int)=    0.0000000001
done
Storing new coordinates                 .... done

                                .--------------------.
          ----------------------|Geometry convergence|---------------------
          Item                value                 Tolerance   Converged
          -----------------------------------------------------------------
          Energy change      -0.00000066            0.00000100      YES
          RMS gradient        0.00001416            0.00003000      YES
          MAX gradient        0.00005348            0.00010000      YES
          RMS step            0.00025086            0.00060000      YES
          MAX step            0.00106570            0.00100000      NO
          ....................................................
          Max(Bonds)      0.0002      Max(Angles)    0.02
          Max(Dihed)        0.06      Max(Improp)    0.00
          -----------------------------------------------------------------

       The energies and gradients are converged
       and the convergence on bond distances, angles, dihedrals and impropers
       is acceptable.
       Convergence will therefore be signaled now


                    ***********************HURRAY********************
                    ***        THE OPTIMIZATION HAS CONVERGED     ***
                    *************************************************


    ---------------------------------------------------------------------------
                         Redundant Internal Coordinates

                          --- Optimized Parameters ---  
                            (Angstroem and degrees)

        Definition                    OldVal   dE/dq     Step     FinalVal
    ----------------------------------------------------------------------------
     1. B(C   1,O   0)                1.3785 -0.000048  0.0001    1.3786   
     2. B(C   2,C   1)                1.5478 -0.000033  0.0002    1.5479   
     3. B(C   3,C   2)                1.5481  0.000036 -0.0001    1.5480   
     4. B(C   4,C   3)                1.5314  0.000053 -0.0002    1.5312   
     5. B(C   4,C   1)                1.5615  0.000004 -0.0000    1.5615   
     6. B(N   5,C   4)                1.5068 -0.000039  0.0001    1.5069   
     7. B(C   6,C   2)                1.5148 -0.000051  0.0001    1.5149   
     8. B(C   6,N   5)                1.5349 -0.000005  0.0000    1.5349   
     9. B(H   7,O   0)                0.9620 -0.000002  0.0000    0.9620   
    10. B(H   8,C   1)                1.0990  0.000026 -0.0001    1.0989   
    11. B(H   9,C   2)                1.0863  0.000000 -0.0000    1.0863   
    12. B(H  10,C   3)                1.0862 -0.000003  0.0000    1.0862   
    13. B(H  11,C   3)                1.0918  0.000013 -0.0001    1.0918   
    14. B(H  12,C   4)                1.0880 -0.000003 -0.0000    1.0880   
    15. B(H  13,N   5)                1.0193 -0.000001 -0.0000    1.0193   
    16. B(H  14,N   5)                1.0198  0.000003 -0.0000    1.0198   
    17. B(H  15,C   6)                1.0891  0.000005 -0.0000    1.0890   
    18. B(H  16,C   6)                1.0882  0.000003 -0.0000    1.0882   
    19. A(C   1,O   0,H   7)          110.64 -0.000003    0.00    110.64   
    20. A(C   4,C   1,H   8)          116.37 -0.000014    0.00    116.37   
    21. A(O   0,C   1,C   2)          111.12  0.000019   -0.01    111.11   
    22. A(O   0,C   1,C   4)          114.25  0.000010   -0.00    114.24   
    23. A(C   2,C   1,H   8)          117.02 -0.000019    0.01    117.04   
    24. A(C   2,C   1,C   4)           81.95  0.000013   -0.01     81.94   
    25. A(O   0,C   1,H   8)          112.75 -0.000004    0.01    112.76   
    26. A(C   3,C   2,C   6)          101.97  0.000004    0.00    101.98   
    27. A(C   6,C   2,H   9)          116.74 -0.000011    0.01    116.75   
    28. A(C   3,C   2,H   9)          123.03 -0.000007   -0.00    123.03   
    29. A(C   1,C   2,C   3)           86.68  0.000006    0.00     86.68   
    30. A(C   1,C   2,H   9)          121.30  0.000005   -0.01    121.29   
    31. A(C   1,C   2,C   6)          101.42  0.000009   -0.01    101.41   
    32. A(C   2,C   3,H  11)          119.17  0.000000    0.01    119.17   
    33. A(H  10,C   3,H  11)          110.70 -0.000013    0.00    110.71   
    34. A(C   4,C   3,H  11)          118.67  0.000000    0.00    118.67   
    35. A(C   2,C   3,C   4)           82.92 -0.000022    0.01     82.92   
    36. A(C   4,C   3,H  10)          110.71  0.000019   -0.01    110.70   
    37. A(C   2,C   3,H  10)          112.04  0.000017   -0.01    112.03   
    38. A(C   1,C   4,N   5)           99.82 -0.000002   -0.01     99.81   
    39. A(C   3,C   4,H  12)          125.68 -0.000002    0.00    125.68   
    40. A(C   1,C   4,H  12)          125.28  0.000008    0.00    125.29   
    41. A(C   1,C   4,C   3)           86.78 -0.000012    0.01     86.79   
    42. A(N   5,C   4,H  12)          112.41  0.000007   -0.01    112.40   
    43. A(C   3,C   4,N   5)          101.24 -0.000001    0.01    101.25   
    44. A(C   4,N   5,H  14)          112.33  0.000008   -0.01    112.32   
    45. A(C   6,N   5,H  13)          112.02  0.000003    0.01    112.03   
    46. A(C   4,N   5,H  13)          111.92 -0.000021    0.02    111.94   
    47. A(C   4,N   5,C   6)          101.01  0.000005   -0.00    101.01   
    48. A(C   6,N   5,H  14)          111.99 -0.000002   -0.01    111.98   
    49. A(H  13,N   5,H  14)          107.58  0.000006   -0.00    107.58   
    50. A(C   2,C   6,N   5)           98.20  0.000006   -0.00     98.20   
    51. A(H  15,C   6,H  16)          110.01  0.000008   -0.00    110.00   
    52. A(N   5,C   6,H  16)          109.10  0.000007    0.00    109.10   
    53. A(C   2,C   6,H  16)          114.56 -0.000017    0.01    114.57   
    54. A(N   5,C   6,H  15)          108.98 -0.000000   -0.01    108.98   
    55. A(C   2,C   6,H  15)          115.16 -0.000002    0.00    115.16   
    56. D(H   8,C   1,O   0,H   7)    -43.46  0.000016   -0.05    -43.51   
    57. D(C   4,C   1,O   0,H   7)     92.36  0.000001   -0.04     92.31   
    58. D(C   2,C   1,O   0,H   7)   -177.11  0.000029   -0.06   -177.17   
    59. D(H   9,C   2,C   1,C   4)    160.95  0.000015   -0.01    160.94   
    60. D(C   6,C   2,C   1,O   0)    179.31 -0.000003   -0.01    179.30   
    61. D(H   9,C   2,C   1,O   0)     48.00 -0.000001   -0.01     47.99   
    62. D(C   3,C   2,C   1,O   0)    -79.14  0.000002   -0.00    -79.14   
    63. D(H   9,C   2,C   1,H   8)    -83.49  0.000004   -0.01    -83.50   
    64. D(C   6,C   2,C   1,C   4)    -67.74  0.000013   -0.01    -67.75   
    65. D(C   6,C   2,C   1,H   8)     47.82  0.000002   -0.01     47.81   
    66. D(C   3,C   2,C   1,C   4)     33.82  0.000018   -0.01     33.81   
    67. D(C   3,C   2,C   1,H   8)    149.38  0.000007   -0.01    149.37   
    68. D(C   4,C   3,C   2,H   9)   -160.15 -0.000018    0.02   -160.13   
    69. D(C   4,C   3,C   2,C   6)     66.49  0.000001   -0.00     66.49   
    70. D(H  11,C   3,C   2,H   9)     80.89 -0.000005    0.01     80.89   
    71. D(H  11,C   3,C   2,C   6)    -52.47  0.000013   -0.01    -52.48   
    72. D(H  10,C   3,C   2,H   9)    -50.63 -0.000005    0.01    -50.62   
    73. D(H  10,C   3,C   2,C   6)    176.02  0.000013   -0.01    176.01   
    74. D(H  10,C   3,C   2,C   1)     75.04  0.000003   -0.00     75.03   
    75. D(H  11,C   3,C   2,C   1)   -153.45  0.000003   -0.00   -153.45   
    76. D(C   4,C   3,C   2,C   1)    -34.49 -0.000010    0.01    -34.48   
    77. D(N   5,C   4,C   1,C   2)     66.63 -0.000018    0.02     66.64   
    78. D(H  12,C   4,C   1,O   0)    -57.15  0.000021   -0.03    -57.18   
    79. D(H  12,C   4,C   1,H   8)     77.01  0.000011   -0.02     76.99   
    80. D(C   1,C   4,C   3,C   2)     34.14  0.000002   -0.00     34.14   
    81. D(H  12,C   4,C   1,C   2)   -166.75 -0.000005   -0.01   -166.76   
    82. D(N   5,C   4,C   1,O   0)    176.23  0.000009   -0.00    176.22   
    83. D(C   3,C   4,C   1,H   8)   -150.47  0.000002   -0.00   -150.47   
    84. D(N   5,C   4,C   1,H   8)    -49.61 -0.000001    0.01    -49.60   
    85. D(C   3,C   4,C   1,C   2)    -34.23 -0.000015    0.01    -34.23   
    86. D(C   3,C   4,C   1,O   0)     75.37  0.000012   -0.01     75.35   
    87. D(H  12,C   4,C   3,H  10)     55.41 -0.000010    0.02     55.43   
    88. D(H  12,C   4,C   3,C   2)    166.35  0.000000    0.01    166.36   
    89. D(N   5,C   4,C   3,H  11)     54.21 -0.000005    0.02     54.23   
    90. D(N   5,C   4,C   3,H  10)   -176.18 -0.000004    0.02   -176.17   
    91. D(N   5,C   4,C   3,C   2)    -65.25  0.000007    0.01    -65.24   
    92. D(C   1,C   4,C   3,H  11)    153.60 -0.000010    0.01    153.61   
    93. D(H  12,C   4,C   3,H  11)    -74.19 -0.000012    0.02    -74.17   
    94. D(C   1,C   4,C   3,H  10)    -76.80 -0.000009    0.01    -76.79   
    95. D(H  14,N   5,C   4,H  12)    -60.19  0.000007   -0.02    -60.22   
    96. D(H  14,N   5,C   4,C   1)     74.68  0.000020   -0.03     74.64   
    97. D(H  13,N   5,C   4,H  12)     60.96  0.000006   -0.02     60.94   
    98. D(H  13,N   5,C   4,C   3)    -75.52  0.000005   -0.02    -75.55   
    99. D(H  13,N   5,C   4,C   1)   -164.17  0.000018   -0.03   -164.20   
   100. D(C   6,N   5,C   4,H  12)   -179.69  0.000003   -0.01   -179.70   
   101. D(H  14,N   5,C   4,C   3)    163.32  0.000007   -0.02    163.30   
   102. D(C   6,N   5,C   4,C   3)     43.82  0.000003   -0.01     43.82   
   103. D(C   6,N   5,C   4,C   1)    -44.82  0.000016   -0.02    -44.84   
   104. D(H  15,C   6,N   5,H  13)   -120.12 -0.000016    0.03   -120.09   
   105. D(H  15,C   6,N   5,C   4)    120.61  0.000003    0.00    120.61   
   106. D(C   2,C   6,N   5,H  14)   -119.38 -0.000008    0.02   -119.36   
   107. D(C   2,C   6,N   5,C   4)      0.36  0.000003    0.01      0.36   
   108. D(H  16,C   6,C   2,H   9)    -65.55  0.000005   -0.01    -65.55   
   109. D(H  16,C   6,C   2,C   3)     71.40 -0.000010    0.01     71.41   
   110. D(H  16,C   6,C   2,C   1)    160.40 -0.000002    0.01    160.41   
   111. D(H  15,C   6,C   2,H   9)     63.51 -0.000002    0.00     63.52   
   112. D(H  15,C   6,C   2,C   3)   -159.54 -0.000018    0.01   -159.52   
   113. D(C   2,C   6,N   5,H  13)    119.63 -0.000016    0.03    119.66   
   114. D(H  15,C   6,C   2,C   1)    -70.54 -0.000009    0.01    -70.52   
   115. D(N   5,C   6,C   2,H   9)    179.03  0.000000   -0.01    179.02   
   116. D(N   5,C   6,C   2,C   3)    -44.02 -0.000015    0.00    -44.01   
   117. D(H  15,C   6,N   5,H  14)      0.87 -0.000008    0.02      0.88   
   118. D(N   5,C   6,C   2,C   1)     44.98 -0.000007    0.00     44.98   
   119. D(H  16,C   6,N   5,H  14)    121.00  0.000006    0.01    121.01   
   120. D(H  16,C   6,N   5,H  13)      0.01 -0.000003    0.02      0.03   
   121. D(H  16,C   6,N   5,C   4)   -119.26  0.000017   -0.01   -119.27   
    ----------------------------------------------------------------------------
                 *******************************************************
                 *** FINAL ENERGY EVALUATION AT THE STATIONARY POINT ***
                 ***               (AFTER    2 CYCLES)               ***
                 *******************************************************


           ************************************************************
           *        Program running with 8 parallel MPI-processes     *
           *              working on a common directory               *
           ************************************************************
           ************************************************************
           *              Shut down parallel processing               *
           ************************************************************


           ************************************************************
           *        Program running with 8 parallel MPI-processes     *
           *              working on a common directory               *
           ************************************************************
------------
SCF SETTINGS
------------
Hamiltonian:
 Density Functional     Method          .... DFT(GTOs)
 Exchange Functional    Exchange        .... PBE
   PBE kappa parameter  XKappa          ....  0.804000
 Correlation Functional Correlation     .... PBE
 LDA part of GGA corr.  LDAOpt          .... PW91-LDA
 Gradients option       PostSCFGGA      .... off
 Hybrid DFT is turned on
   Fraction HF Exchange ScalHFX         ....  0.250000
   Scaling of DF-GGA-X  ScalDFX         ....  0.750000
   Scaling of DF-GGA-C  ScalDFC         ....  1.000000
   Scaling of DF-LDA-C  ScalLDAC        ....  1.000000
   Perturbative correction              ....  0.000000
   NL short-range parameter             ....  6.900000


General Settings:
 Integral files         IntName         .... 6464_+
 Hartree-Fock type      HFTyp           .... RHF
 Total Charge           Charge          ....    1
 Multiplicity           Mult            ....    1
 Number of Electrons    NEL             ....   54
 Basis Dimension        Dim             ....  277
 Nuclear Repulsion      ENuc            ....    340.8338114564 Eh

Convergence Acceleration:
 DIIS                   CNVDIIS         .... on
   Start iteration      DIISMaxIt       ....    12
   Startup error        DIISStart       ....  0.200000
   # of expansion vecs  DIISMaxEq       ....     5
   Bias factor          DIISBfac        ....   1.050
   Max. coefficient     DIISMaxC        ....  10.000
 Newton-Raphson         CNVNR           .... off
 SOSCF                  CNVSOSCF        .... on
   Start iteration      SOSCFMaxIt      ....   150
   Startup grad/error   SOSCFStart      ....  0.003300
 Level Shifting         CNVShift        .... on
   Level shift para.    LevelShift      ....    0.2500
   Turn off err/grad.   ShiftErr        ....    0.0010
 Zerner damping         CNVZerner       .... off
 Static damping         CNVDamp         .... on
   Fraction old density DampFac         ....    0.7000
   Max. Damping (<1)    DampMax         ....    0.9800
   Min. Damping (>=0)   DampMin         ....    0.0000
   Turn off err/grad.   DampErr         ....    0.1000
 Fernandez-Rico         CNVRico         .... off

SCF Procedure:
 Maximum # iterations   MaxIter         ....   125
 SCF integral mode      SCFMode         .... Direct
   Integral package                     .... LIBINT
 Reset frequeny         DirectResetFreq ....    20
 Integral Threshold     Thresh          ....  2.500e-11 Eh
 Primitive CutOff       TCut            ....  2.500e-12 Eh

Convergence Tolerance:
 Convergence Check Mode ConvCheckMode   .... Total+1el-Energy
 Energy Change          TolE            ....  1.000e-08 Eh
 1-El. energy change                    ....  1.000e-05 Eh
 Orbital Gradient       TolG            ....  1.000e-05
 Orbital Rotation angle TolX            ....  1.000e-05
 DIIS Error             TolErr          ....  5.000e-07


Diagonalization of the overlap matrix:
Smallest eigenvalue                        ... 3.053e-05
Time for diagonalization                   ...    0.186 sec
Threshold for overlap eigenvalues          ... 1.000e-08
Number of eigenvalues below threshold      ... 0
Time for construction of square roots      ...    0.013 sec
Total time needed                          ...    0.200 sec

-------------------
DFT GRID GENERATION
-------------------

General Integration Accuracy     IntAcc      ...  4.340
Radial Grid Type                 RadialGrid  ... Gauss-Chebyshev
Angular Grid (max. acc.)         AngularGrid ... Lebedev-194
Angular grid pruning method      GridPruning ... 3 (G Style)
Weight generation scheme         WeightScheme... Becke
Basis function cutoff            BFCut       ...    1.0000e-11
Integration weight cutoff        WCut        ...    1.0000e-14
Grids for H and He will be reduced by one unit

# of grid points (after initial pruning)     ...  38362 (   0.0 sec)
# of grid points (after weights+screening)   ...  34801 (   0.1 sec)
nearest neighbour list constructed           ...    0.0 sec
Grid point re-assignment to atoms done       ...    0.0 sec
Grid point division into batches done        ...    0.1 sec
Reduced shell lists constructed in    0.2 sec

Total number of grid points                  ...    34801
Total number of batches                      ...      553
Average number of points per batch           ...       62
Average number of grid points per atom       ...     2047
Average number of shells per batch           ...    92.37 (78.95%)
Average number of basis functions per batch  ...   229.75 (82.94%)
Average number of large shells per batch     ...    76.04 (82.33%)
Average number of large basis fcns per batch ...   190.04 (82.72%)
Maximum spatial batch extension              ...  11.05, 15.38, 12.58 au
Average spatial batch extension              ...   0.20,  0.21,  0.22 au

Time for grid setup =    0.430 sec

--------------
SCF ITERATIONS
--------------
ITER       Energy         Delta-E        Max-DP      RMS-DP      [F,P]     Damp
               ***  Starting incremental Fock matrix formation  ***
                      *** Initiating the SOSCF procedure ***
                      *** Re-Reading the Fockian *** 
                      *** Removing any level shift *** 
ITER      Energy       Delta-E        Grad      Rot      Max-DP    RMS-DP
  0   -325.98903342 -325.9890334234  0.000048  0.000048  0.000840  0.000007
               *** Restarting incremental Fock matrix formation ***
  1   -325.98903364  -0.0000002154  0.000012  0.000027  0.000377  0.000003
  2   -325.98903366  -0.0000000172  0.000006  0.000010  0.000125  0.000001
  3   -325.98903366  -0.0000000011  0.000005  0.000006  0.000056  0.000001
                  ***Gradient check signals convergence***
              ***Rediagonalizing the Fockian in SOSCF/NRSCF***

               *****************************************************
               *                     SUCCESS                       *
               *           SCF CONVERGED AFTER   4 CYCLES          *
               *****************************************************

Setting up the final grid:

General Integration Accuracy     IntAcc      ...  5.010
Radial Grid Type                 RadialGrid  ... Gauss-Chebyshev
Angular Grid (max. acc.)         AngularGrid ... Lebedev-434
Angular grid pruning method      GridPruning ... 3 (G Style)
Weight generation scheme         WeightScheme... Becke
Basis function cutoff            BFCut       ...    1.0000e-11
Integration weight cutoff        WCut        ...    1.0000e-14
Grids for H and He will be reduced by one unit

# of grid points (after initial pruning)     ... 141842 (   0.0 sec)
# of grid points (after weights+screening)   ... 127232 (   1.1 sec)
nearest neighbour list constructed           ...    0.0 sec
Grid point re-assignment to atoms done       ...    0.0 sec
Grid point division into batches done        ...    0.8 sec
Reduced shell lists constructed in    1.1 sec

Total number of grid points                  ...   127232
Total number of batches                      ...     1997
Average number of points per batch           ...       63
Average number of grid points per atom       ...     7484
Average number of shells per batch           ...    91.00 (77.78%)
Average number of basis functions per batch  ...   227.15 (82.00%)
Average number of large shells per batch     ...    74.44 (81.80%)
Average number of large basis fcns per batch ...   185.66 (81.73%)
Maximum spatial batch extension              ...  10.66, 12.99, 11.49 au
Average spatial batch extension              ...   0.13,  0.14,  0.14 au

Final grid set up in    3.3 sec
Final integration                            ... done (   1.1 sec)
Change in XC energy                          ...     0.000403055
Integrated number of electrons               ...    53.999973559
Previous integrated no of electrons          ...    54.000208597
Total Energy       :         -325.98863060 Eh           -8870.60161 eV
  Last Energy change         ...   -1.7068e-09  Tolerance :   1.0000e-08
  Last MAX-Density change    ...    1.6042e-05  Tolerance :   1.0000e-07
             **** THE GBW FILE WAS UPDATED (6464_+.gbw) ****
             **** DENSITY FILE WAS UPDATED (6464_+.scfp.tmp) ****
             **** ENERGY FILE WAS UPDATED (6464_+.en.tmp) ****
Total SCF time: 0 days 0 hours 0 min 43 sec 
           ************************************************************
           *              Shut down parallel processing               *
           ************************************************************

-------------------------   --------------------
FINAL SINGLE POINT ENERGY      -325.988630603463
[...]
     49      -0.040425   0.085055   0.030176   0.205623  -0.105442   0.058344
     50      -0.080652   0.173574  -0.153511   0.173055   0.001551   0.271481
                 36         37         38         39         40         41    
      0       0.018183   0.043862   0.010707  -0.005944  -0.001575   0.000441
      1       0.000731   0.019626   0.004117  -0.002509  -0.001358  -0.000418
      2      -0.000582   0.019162   0.008998  -0.004671  -0.000570   0.000923
      3      -0.052288  -0.056065  -0.013995   0.011732   0.000184  -0.052391
      4       0.020798   0.000740  -0.002013  -0.000317   0.003767  -0.066486
      5       0.004865  -0.164254  -0.053673   0.026901   0.006104  -0.001181
      6       0.048545   0.021795   0.016136  -0.012205  -0.001916   0.000205
      7       0.016999  -0.019567  -0.010369   0.005851  -0.002161  -0.000330
      8      -0.048085   0.038977   0.007756  -0.000929   0.004115   0.000864
      9      -0.045366  -0.022889   0.055484  -0.017826  -0.006473  -0.000092
     10       0.011751  -0.018763   0.063780  -0.027523  -0.003628   0.000145
     11       0.011288  -0.008989   0.001123  -0.001114  -0.000346  -0.000507
     12       0.071196  -0.015062  -0.018749   0.002090   0.008842   0.000322
     13      -0.014246  -0.006740   0.008455  -0.006878  -0.005428  -0.000374
     14      -0.025290   0.038968   0.014576   0.002704  -0.002941   0.001461
     15      -0.059845   0.007911   0.004293  -0.012081   0.049598  -0.000210
     16       0.087821  -0.004244  -0.001402   0.012078  -0.002664  -0.000298
     17      -0.066018   0.004781  -0.000922  -0.004666  -0.051895  -0.000415
     18      -0.070878  -0.012798  -0.016723  -0.020093   0.002495   0.000041
     19      -0.009679   0.009970   0.024936   0.052179   0.007531   0.001354
     20       0.094974   0.003397  -0.013799  -0.051618  -0.013717  -0.000186
     21      -0.087792  -0.207219  -0.055881   0.029175   0.006274  -0.005336
     22      -0.065536  -0.132199  -0.037533   0.021291   0.005837   0.002262
     23       0.139662   0.349308   0.096619  -0.050706  -0.010491   0.004862
     24       0.102536   0.014489  -0.004181  -0.009788   0.014975   0.612147
     25      -0.099752  -0.061390  -0.011523   0.021087   0.001871   0.785259
     26      -0.056428   0.740947   0.204726  -0.097652  -0.023306  -0.003631
     27       0.026244  -0.012856   0.008465  -0.010175  -0.002096   0.014505
     28      -0.103905   0.009317   0.004724   0.014657   0.009308  -0.007396
     29       0.048622  -0.110394  -0.048895   0.009537  -0.007515  -0.005638
     30       0.077808   0.178415  -0.314359   0.122722   0.021281   0.001430
     31      -0.129098   0.187618  -0.383636   0.144134   0.026191   0.002182
     32      -0.022008   0.177466  -0.378091   0.144639   0.026681  -0.001626
     33       0.081728   0.140588  -0.297455   0.096183   0.023687   0.005000
     34      -0.077474   0.157254  -0.374387   0.150843   0.015292   0.005177
     35      -0.002183  -0.168212   0.387347  -0.147532  -0.029406   0.011179
     36      -0.114258   0.024633   0.006666   0.011506   0.006614  -0.017214
     37      -0.159773  -0.008900   0.021846   0.000402  -0.011051   0.015733
     38       0.258071  -0.172196  -0.084170   0.012410   0.013336  -0.005989
     39       0.206005  -0.022534  -0.027134   0.080047  -0.629509   0.001313
     40      -0.329013   0.011806   0.010266   0.026766  -0.249434   0.001808
     41       0.241573  -0.005081  -0.005757  -0.018184   0.172990  -0.001528
     42       0.192408  -0.017767  -0.021689   0.024012  -0.164600   0.006343
     43      -0.341635   0.036137   0.038145  -0.048772   0.327663   0.000211
     44       0.261632  -0.028324  -0.000338  -0.070132   0.597849  -0.007163
     45       0.279863   0.048478   0.191168   0.392855   0.036074  -0.005166
     46      -0.134163  -0.012037  -0.051056  -0.099412  -0.003647  -0.013769
     47      -0.203099  -0.018821   0.188747   0.512428   0.056614  -0.003816
     48       0.359820   0.060718   0.020853  -0.041755  -0.014220   0.001503
     49      -0.096921  -0.030694  -0.273022  -0.636782  -0.064418   0.002045
     50      -0.189072  -0.040219   0.034277   0.130821   0.014259  -0.000912
                 42         43         44         45         46         47    
      0       0.000137   0.000006   0.000026   0.000077   0.000182  -0.000245
      1       0.000136   0.000058   0.000057   0.000077   0.000018  -0.000322
      2       0.000235   0.000012   0.000227   0.000076   0.000259  -0.000180
      3       0.000855  -0.000820  -0.001260  -0.000221  -0.002292   0.000308
      4       0.000926  -0.000286  -0.003128  -0.000885  -0.001399   0.000477
      5       0.000506  -0.000368  -0.001318   0.000327  -0.001362  -0.000280
      6       0.001648  -0.003195  -0.000889   0.000914   0.072593   0.005968
      7       0.000301   0.002076   0.000112  -0.001395  -0.039926  -0.003167
      8      -0.001117   0.000551   0.000768  -0.000872  -0.027362  -0.002499
      9      -0.038733   0.000826   0.003934  -0.000589   0.000194   0.013653
     10      -0.049326   0.001788   0.002944  -0.000242   0.001362   0.024109
     11      -0.037752   0.000414   0.005027   0.000631   0.008961  -0.088004
     12      -0.001665   0.000843  -0.063296  -0.000215  -0.001939  -0.001345
     13       0.003319  -0.000703   0.058996   0.000229   0.001529   0.002059
     14      -0.001178  -0.000037  -0.013682  -0.000010   0.000012  -0.000911
     15       0.000144  -0.000170   0.000701   0.001462  -0.000827  -0.000863
     16       0.000089   0.000738  -0.000735   0.001835   0.000428  -0.000718
     17      -0.000206  -0.000581   0.000426   0.001408   0.000595   0.000371
     18       0.001188   0.011739   0.000719  -0.054291   0.001294  -0.000671
     19      -0.000796  -0.049983  -0.001422  -0.063773  -0.001741  -0.001236
     20       0.001753   0.044975   0.001582  -0.050581   0.004218  -0.000025
     21      -0.000192   0.000208  -0.000463  -0.000544  -0.000696  -0.000488
     22       0.000705  -0.000234   0.000870   0.000083  -0.000163  -0.001169
     23       0.000072   0.000318   0.001976  -0.000286   0.001282   0.000026
     24      -0.006322   0.007805   0.013469   0.007016   0.010339   0.000058
     25      -0.007720   0.007368   0.017353   0.006915   0.012147   0.000246
     26      -0.000346   0.000875   0.000595   0.001484   0.000627  -0.000126
     27      -0.027431   0.040077   0.018648  -0.014302  -0.824136  -0.066709
     28       0.012764  -0.024121  -0.009709   0.009350   0.454455   0.038013
     29       0.009695  -0.011912  -0.007523   0.006114   0.309710   0.026695
     30       0.104488  -0.004078  -0.001196   0.004960   0.019641  -0.285361
     31       0.160761  -0.006256   0.001165   0.006423   0.027933  -0.434842
     32      -0.314248   0.010301  -0.003058  -0.010904  -0.053739   0.771044
     33       0.339108  -0.007710  -0.022478   0.001836  -0.021560   0.130632
     34       0.406452  -0.011484  -0.027016   0.004087  -0.027086   0.157985
     35       0.757307  -0.018366  -0.048845   0.003580  -0.047113   0.277429
     36       0.039162  -0.014661   0.714152   0.002224   0.010606   0.019687
     37      -0.041037   0.014440  -0.673278  -0.002270  -0.010363  -0.017066
     38       0.009211  -0.003666   0.154625   0.000384   0.002117   0.005404
     39      -0.003483   0.001334   0.000505  -0.004904  -0.000448  -0.001662
     40       0.000049   0.001055   0.006806  -0.005194   0.001855   0.001316
     41       0.005181   0.002683   0.000266  -0.012552   0.001164   0.002349
     42      -0.001018  -0.002460  -0.005393  -0.008146  -0.002569   0.001083
     43       0.000200  -0.004483   0.000182  -0.011488  -0.000751  -0.000369
     44       0.000635  -0.000090  -0.005265   0.000314  -0.000597   0.001774
     45       0.005536   0.248710   0.004055   0.214110   0.009104   0.001461
     46       0.014369   0.704282   0.010460   0.620285   0.021935   0.005544
     47       0.001266   0.007874  -0.000299  -0.007975  -0.002703   0.000764
     48      -0.016635  -0.378870  -0.007073   0.424435  -0.023987   0.003741
     49      -0.006868  -0.130413  -0.002704   0.132311  -0.007496   0.000389
     50      -0.019381  -0.522712  -0.011146   0.600866  -0.038054   0.005237
                  48         49         50    
      0      -0.000168   0.000004   0.049471
      1       0.000066   0.000042  -0.000470
      2       0.000070  -0.000077   0.038669
      3      -0.000432  -0.000078   0.001636
      4      -0.000430  -0.000524   0.000524
      5       0.000149  -0.000289  -0.000485
      6      -0.000612  -0.000008  -0.000309
      7       0.000442   0.000060  -0.000048
      8       0.000255   0.000022  -0.000232
      9      -0.000074  -0.000446   0.000056
     10       0.000084  -0.000112  -0.000017
     11       0.000452  -0.000386  -0.000046
     12       0.000716   0.000142   0.000036
     13       0.000067   0.000086   0.000144
     14      -0.000676   0.000097  -0.000230
     15       0.044073   0.042815   0.000072
     16      -0.002446   0.056562  -0.000094
     17      -0.037726   0.042692  -0.000200
     18       0.000131   0.000746   0.000068
     19       0.000172   0.001024   0.000008
     20      -0.000267   0.000695   0.000061
     21       0.001544  -0.000118  -0.801024
     22      -0.000323  -0.000149   0.001849
     23       0.000969   0.000014  -0.595300
     24       0.002525   0.002937  -0.001318
     25       0.002013   0.002258  -0.000059
     26      -0.000619  -0.001079  -0.004644
     27       0.001105   0.000444  -0.000110
     28      -0.001367  -0.000119   0.000067
     29       0.000408  -0.000079  -0.000162
     30      -0.001012  -0.000274   0.000207
     31      -0.000092  -0.001361  -0.000102
     32       0.001056   0.001985   0.000050
     33      -0.000010   0.000265  -0.000203
     34      -0.000972   0.001096  -0.000126
     35      -0.002287   0.002963  -0.000433
     36      -0.004714  -0.000215   0.000255
     37       0.004284  -0.000596  -0.000483
     38      -0.000745  -0.000362   0.000217
     39       0.030651  -0.011945  -0.000021
     40       0.407793  -0.440894   0.001226
     41       0.533341  -0.591745   0.000481
     42      -0.630936  -0.578083  -0.001298
     43      -0.382867  -0.337345  -0.000509
     44      -0.012011   0.005977   0.000345
     45      -0.004751  -0.003795  -0.000038
     46      -0.003098  -0.013357  -0.000148
     47       0.000220  -0.000018   0.000099
     48      -0.000937  -0.008473  -0.000364
     49       0.003578  -0.002546  -0.000204
     50       0.003841  -0.011343  -0.000523


-----------
IR SPECTRUM
-----------

 Mode    freq (cm**-1)   T**2         TX         TY         TZ
-------------------------------------------------------------------
   6:       273.21   14.746449  ( -0.837253   3.640948   0.888233)
   7:       290.87   86.712069  (  1.002998  -9.021313  -2.078935)
   8:       301.23    9.500755  ( -0.740849  -2.827128  -0.979411)
   9:       348.75   22.146041  (  0.557160  -3.460607  -3.140034)
  10:       448.36    6.307082  (  0.856907   1.376404   1.917890)
  11:       552.74   11.923856  ( -0.761563   0.640267   3.306650)
  12:       651.72    1.186583  ( -0.558161  -0.702163   0.618066)
  13:       826.86    1.761582  (  1.235934   0.441118   0.198659)
  14:       843.32    2.481417  (  1.306049   0.841879   0.258635)
  15:       857.36    8.060201  ( -0.556240   1.277659   2.473537)
  16:       871.02    3.761629  ( -0.753511   1.503418  -0.966223)
  17:       896.10    3.852961  ( -1.748369   0.816254   0.360412)
  18:       915.53   10.817450  (  1.648803   0.662809  -2.767595)
  19:       949.94    7.296584  ( -0.682947   2.215469  -1.386314)
  20:       968.03    3.202103  (  0.625589  -1.289574  -1.071326)
  21:      1014.59    9.348515  ( -0.179926   1.806640  -2.460121)
  22:      1029.76    2.323805  ( -0.363698   0.267026   1.456100)
  23:      1074.35   16.180152  ( -0.978901  -0.306170   3.889494)
  24:      1094.64    0.210889  (  0.304355  -0.159103  -0.304866)
  25:      1127.01   14.270414  (  1.678353   2.632760  -2.126528)
  26:      1151.09    1.463180  (  1.032884  -0.043895   0.628016)
  27:      1208.23   45.367285  ( -1.650578  -1.681787   6.309871)
  28:      1223.14   68.469666  (  1.260006  -0.024569   8.178108)
  29:      1242.27    5.098141  ( -0.252435  -1.711682   1.450711)
  30:      1255.82   19.244243  ( -3.036699   1.620514   2.719676)
  31:      1283.74   15.773716  ( -0.430329   0.363865   3.931429)
  32:      1291.57   24.239512  (  1.765490   0.627057  -4.552950)
  33:      1305.53    3.942900  (  1.302318  -0.572602  -1.385278)
  34:      1321.97    4.777002  (  1.872070   1.066656  -0.366879)
  35:      1357.25   10.485987  (  0.527588  -2.841583   1.460495)
  36:      1372.07   54.439437  (  3.079825  -5.328040   4.070148)
  37:      1445.73    5.695789  ( -0.807498  -0.262805  -2.230397)
  38:      1487.93   17.405333  ( -2.683817  -3.141001  -0.580147)
  39:      1506.40    9.240825  (  1.461994  -0.629425   2.589831)
  40:      1653.15   68.806222  ( -5.426678   0.314697   6.265648)
  41:      3021.36   35.535097  ( -3.587783  -4.596899   1.237510)
  42:      3098.33   10.705432  ( -0.943090  -1.392572  -2.806556)
  43:      3117.68    2.465527  (  0.075549  -1.073398   1.143520)
  44:      3166.60    1.789637  ( -1.204193   0.545874  -0.203908)
  45:      3182.22    0.206393  ( -0.262378  -0.334698  -0.159775)
  46:      3184.50    0.279084  ( -0.334703  -0.227713   0.339417)
  47:      3197.57    3.130343  ( -1.061888  -1.150737   0.823737)
  48:      3466.06   60.855261  ( -5.763064   0.747347   5.204213)
  49:      3525.73   73.563785  ( -4.184150  -5.775042  -4.765035)
  50:      3854.63  111.689829  ( -5.835978   0.311792  -8.805338)

The first frequency considered to be a vibration is 6
The total number of vibrations considered is 45


--------------------------
THERMOCHEMISTRY AT 298.15K
--------------------------

Temperature         ... 298.15 K
Pressure            ... 1.00 atm
Total Mass          ... 100.14 AMU

Throughout the following assumptions are being made:
  (1) The electronic state is orbitally nondegenerate
  (2) There are no thermally accessible electronically excited states
  (3) Hindered rotations indicated by low frequency modes) are not
      treated as such but are treated as vibrations and this may
      case some error
  (4) All equations used are the standard statistical mechanics
      equations for an ideal gas
  (5) All vibrations are strinctly harmonic


------------
INNER ENERGY
------------

The inner energy is: U= E(el) + E(ZPE) + E(vib) + E(rot) + E(trans)
    E(el)   - is the total energy from the electronic structure calculation
              = E(kin-el) + E(nuc-el) + E(el-el) + E(nuc-nuc)
    E(ZPE)  - the the zero temperature vibrational energy from the frequency calculation
    E(vib)  - the the finite temperature correction to E(ZPE) due to population
              of excietd vibrational states
    E(rot)  - is the rotational thermal energy
    E(trans)- is the translational thermal energy

Summary of contributions to the inner energy U:
Electronic energy                ...   -325.98863060 Eh
Zero point energy                ...      0.15549857 Eh      97.58 kcal/mol
Thermal vibrational correction   ...      0.00301123 Eh       1.89 kcal/mol
Thermal rotational correction    ...      0.00141627 Eh       0.89 kcal/mol
Thermal translational correction ...      0.00141627 Eh       0.89 kcal/mol
-----------------------------------------------------------------------
Total thermal energy                   -325.82728826 Eh


Summary of corrections to the electronic energy:
(perhaps to be used in another calculation)
Total thermal correction                  0.00584378 Eh       3.67 kcal/mol
Non-thermal (ZPE) correction              0.15549857 Eh      97.58 kcal/mol
-----------------------------------------------------------------------
Total correction                          0.16134235 Eh     101.24 kcal/mol


--------
ENTHALPY
--------

The enthalpy is H = U + kB*T
                kB is Boltzmann's constant
Total free energy                 ...   -325.82728826 Eh 
Thermal Enthalpy correction       ...      0.00094421 Eh       0.59 kcal/mol
-----------------------------------------------------------------------
Total Enthalpy                    ...   -325.82634405 Eh


-------
ENTROPY
-------

The entropy contributions are T*S = T*(S(el)+S(vib)+S(rot)+S(trans)
     S(el)   - electronic entropy
     S(vib)  - vibrational entropy
     S(rot)  - rotational entropy
     S(trans)- translational entropy
The entropies will be listed as mutliplied by the temperature to get
units of energy

Electronic entropy                ...      0.00000000 Eh      0.00 kcal/mol
Vibrational entropy               ...      0.00440136 Eh      2.76 kcal/mol
Rotational entropy                ...      0.01169201 Eh      7.34 kcal/mol
Translational entropy             ...      0.01887324 Eh     11.84 kcal/mol
-----------------------------------------------------------------------
Final entropy term                ...      0.03496661 Eh     21.94 kcal/mol


CAUTION: The rotational entropy is not quite correctly treated here
         because it includes a symmetry number that is not yet correctly
         implemented in ORCA!
For a nonlinear molecule the correct rotational entropy is:
    S(rot) = R*(ln(qrot/sn)+1.5)
    R    = 8.31441 J/mol/K = 1.987191683e-3 kcal/mol/K
    qrot = 159826.3668108
    sn is the rotational symmetry number. We have assumed 3 here
       if it is different for your molecule then you should correct
       the printed rotational entropy by manually evaluating the equation
       as given above

For convenience we print out the resulting values for sn=1 - 12:
 sn= 1  qrot/sn=  159826.3668 T*S(rot)=     7.99 kcal/mol T*S(tot)=    22.59 kcal/mol
 sn= 2  qrot/sn=   79913.1834 T*S(rot)=     7.58 kcal/mol T*S(tot)=    22.18 kcal/mol
 sn= 3  qrot/sn=   53275.4556 T*S(rot)=     7.34 kcal/mol T*S(tot)=    21.94 kcal/mol
 sn= 4  qrot/sn=   39956.5917 T*S(rot)=     7.17 kcal/mol T*S(tot)=    21.77 kcal/mol
 sn= 5  qrot/sn=   31965.2734 T*S(rot)=     7.03 kcal/mol T*S(tot)=    21.64 kcal/mol
 sn= 6  qrot/sn=   26637.7278 T*S(rot)=     6.93 kcal/mol T*S(tot)=    21.53 kcal/mol
 sn= 7  qrot/sn=   22832.3381 T*S(rot)=     6.83 kcal/mol T*S(tot)=    21.44 kcal/mol
 sn= 8  qrot/sn=   19978.2959 T*S(rot)=     6.76 kcal/mol T*S(tot)=    21.36 kcal/mol
 sn= 9  qrot/sn=   17758.4852 T*S(rot)=     6.69 kcal/mol T*S(tot)=    21.29 kcal/mol
 sn=10  qrot/sn=   15982.6367 T*S(rot)=     6.62 kcal/mol T*S(tot)=    21.23 kcal/mol
 sn=11  qrot/sn=   14529.6697 T*S(rot)=     6.57 kcal/mol T*S(tot)=    21.17 kcal/mol
 sn=12  qrot/sn=   13318.8639 T*S(rot)=     6.52 kcal/mol T*S(tot)=    21.12 kcal/mol


-------------------
GIBBS FREE ENTHALPY
-------------------

The Gibbs free enthalpy is G = H - T*S

Total enthalpy                    ...   -325.82634405 Eh 
Total entropy correction          ...     -0.03496661 Eh    -21.94 kcal/mol
-----------------------------------------------------------------------
Final Gibbs free enthalpy         ...   -325.86131066 Eh

For completeness - the Gibbs free enthalpy minus the electronic energy
G-E(el)                           ...      0.12731995 Eh     79.89 kcal/mol


Timings for individual modules:

Sum of individual times         ...     2396.412 sec (=  39.940 min)
GTO integral calculation        ...        6.403 sec (=   0.107 min)   0.3 %
SCF iterations                  ...      192.133 sec (=   3.202 min)   8.0 %
SCF Gradient evaluation         ...       88.418 sec (=   1.474 min)   3.7 %
Geometry relaxation             ...        0.177 sec (=   0.003 min)   0.0 %
Analytical frequency calculation...     2109.281 sec (=  35.155 min)  88.0 %
                             ****ORCA TERMINATED NORMALLY****
TOTAL RUN TIME: 0 days 0 hours 39 minutes 58 seconds 63 msec
