
                                 *****************
                                 * O   R   C   A *
                                 *****************

           --- An Ab Initio, DFT and Semiempirical electronic structure package ---

                  #######################################################
                  #                        -***-                        #
                  #  Department of molecular theory and spectroscopy    #
                  #              Directorship: Frank Neese              #
                  # Max Planck Institute for Chemical Energy Conversion #
                  #                  D-45470 Muelheim/Ruhr              #
                  #                       Germany                       #
                  #                                                     #
                  #                  All rights reserved                #
                  #                        -***-                        #
                  #######################################################


                         Program Version 3.0.3 - RELEASE   -


 With contributions from (in alphabetic order):
   Ute Becker             : Parallelization
   Dmytro Bykov           : SCF Hessian
   Dmitry Ganyushin       : Spin-Orbit,Spin-Spin,Magnetic field MRCI
   Andreas Hansen         : Spin unrestricted coupled pair/coupled cluster methods
   Dimitrios Liakos       : Extrapolation schemes; parallel MDCI
   Robert Izsak           : Overlap fitted RIJCOSX, COSX-SCS-MP3
   Christian Kollmar      : KDIIS, OOCD, Brueckner-CCSD(T), CCSD density
   Simone Kossmann        : Meta GGA functionals, TD-DFT gradient, OOMP2, MP2 Hessian
   Taras Petrenko         : DFT Hessian,TD-DFT gradient, ASA and ECA modules, normal mode analysis, Resonance Raman, ABS, FL, XAS/XES, NRVS
   Christoph Reimann      : Effective Core Potentials
   Michael Roemelt        : Restricted open shell CIS
   Christoph Riplinger    : Improved optimizer, TS searches, QM/MM, DLPNO-CCSD
   Barbara Sandhoefer     : DKH picture change effects
   Igor Schapiro          : Molecular dynamics
   Kantharuban Sivalingam : CASSCF convergence, NEVPT2
   Boris Wezisla          : Elementary symmetry handling
   Frank Wennmohs         : Technical directorship


 We gratefully acknowledge several colleagues who have allowed us to
 interface, adapt or use parts of their codes:
   Stefan Grimme, W. Hujo, H. Kruse, T. Risthaus : VdW corrections, initial TS optimization,
                                                   DFT functionals, gCP
   Ed Valeev                                     : LibInt (2-el integral package), F12 methods
   Garnet Chan, S. Sharma, R. Olivares           : DMRG
   Ulf Ekstrom                                   : XCFun DFT Library
   Mihaly Kallay                                 : mrcc  (arbitrary order and MRCC methods)
   Andreas Klamt, Michael Diedenhofen            : otool_cosmo (COSMO solvation model)
   Frank Weinhold                                : gennbo (NPA and NBO analysis)
   Christopher J. Cramer and Donald G. Truhlar   : smd solvation model


 Your calculation uses the libint2 library for the computation of 2-el integrals
 For citations please refer to: http://libint.valeyev.net

 This ORCA versions uses:
   CBLAS   interface :  Fast vector & matrix operations
   LAPACKE interface :  Fast linear algebra routines
   SCALAPACK package :  Parallel linear algebra routines


Your calculation utilizes the basis: Ahlrichs-TZV
Cite in your paper:
H - Kr: A. Schaefer, H. Horn and R. Ahlrichs, J. Chem. Phys. 97, 2571 (1992).

The def2-TZV basis will be loaded
Cite in your paper:
 	F. Weigend, R. Ahlrichs, Phys. Chem. Chem. Phys. 2005, 7, 3297.

================================================================================
                                        WARNINGS
                       Please study these warnings very carefully!
================================================================================
Now building the actual basis set
WARNING: Geometry optimizations can change the point-group symmetry!

WARNING: Geometry Optimization
  ===> : Switching off AutoStart
         For restart on a previous wavefunction, please use MOREAD


INFO   : the flag for use of LIBINT has been found!

================================================================================
                                       INPUT FILE
================================================================================
NAME = 6475_+.inp
|  1> ! NORI PBE0 def2-TZVP UseSym TightOPT Freq TightSCF Grid3 FinalGrid5 XYZFile
|  2> % pal
|  3>     nprocs 8
|  4> end
|  5> %method
|  6>     SymThresh 5.0e-2
|  7> end
|  8> % geom 
|  9>     MaxIter 10
| 10> end 
| 11> % maxcore 2000
| 12> % output
| 13>     printlevel mini
| 14>     print[ P_Basis ] 0
| 15>     print[ P_SCFInfo ] 1
| 16>     print[ P_SCFIterInfo ] 1
| 17>     print[ P_OrbEn ] 0
| 18>     print[ P_Cartesian ] 0
| 19> end
| 20> % elprop
| 21>     Dipole false
| 22> end
| 23> *xyz 1 1
| 24>  O        1.1061324104    -0.2658151098     0.3313320223 
| 25>  C        2.4514869980    -0.3960394115     0.0861889529 
| 26>  C        2.9739268477    -0.5860458611    -1.3128503478 
| 27>  C        3.0538752954     0.7484844520    -0.6454735509 
| 28>  N        4.3415615849     1.2841799715    -0.2241867197 
| 29>  C        4.9544276714     2.4434855569    -0.9119323075 
| 30>  C        4.4381215914     2.5934211159     0.4588710943 
| 31>  H        0.6921387974    -1.1352126103     0.3528252450 
| 32>  H        3.0472192435    -0.8450009908     0.8820953679 
| 33>  H        3.8782719525    -1.1724132666    -1.4318959163 
| 34>  H        2.2635960659    -0.6679356477    -2.1257848635 
| 35>  H        2.3805588764     1.5314125032    -0.9725010551 
| 36>  H        4.9989139441     0.5807199233     0.0977093826 
| 37>  H        4.3678144350     2.8112771347    -1.7436060996 
| 38>  H        6.0213117749     2.3632052048    -1.0766468353 
| 39>  H        3.4784162269     3.0680484401     0.6162245669 
| 40>  H        5.1294262842     2.6226085955     1.2912210639 
| 41> *
| 42> 
| 43>                          ****END OF INPUT****
================================================================================

The point group is C1 - hence turning off symmetry
If this is a round-off problem, please increase the symmetry
        detection tolerance (%method SymThresh)


                       *****************************
                       * Geometry Optimization Run *
                       *****************************

Geometry optimization settings:
Update method            Update   .... BFGS
Choice of coordinates    CoordSys .... Redundant Internals
Initial Hessian          InHess   .... Almoef's Model

Convergence Tolerances:
Energy Change            TolE     ....  1.0000e-06 Eh
Max. Gradient            TolMAXG  ....  1.0000e-04 Eh/bohr
RMS Gradient             TolRMSG  ....  3.0000e-05 Eh/bohr
Max. Displacement        TolMAXD  ....  1.0000e-03 bohr
RMS Displacement         TolRMSD  ....  6.0000e-04 bohr

------------------------------------------------------------------------------
                        ORCA OPTIMIZATION COORDINATE SETUP
------------------------------------------------------------------------------

The optimization will be done in new redundant internal coordinates
Making redundant internal coordinates   ...  (new redundants) done
Evaluating the initial hessian          ...  (Almloef) done
Evaluating the coordinates              ...  done
Calculating the B-matrix                .... done
Calculating the G-matrix                .... done
Diagonalizing the G-matrix              .... done
The first mode is                       ....   70
The number of degrees of freedom        ....   45

    -----------------------------------------------------------------
                    Redundant Internal Coordinates


    -----------------------------------------------------------------
         Definition                    Initial Value    Approx d2E/dq
    -----------------------------------------------------------------
      1. B(C   1,O   0)                  1.3737         0.594145   
      2. B(C   2,C   1)                  1.5054         0.408844   
      3. B(C   3,C   1)                  1.4860         0.439146   
      4. B(C   3,C   2)                  1.4942         0.426019   
      5. B(N   4,C   3)                  1.4569         0.437647   
      6. B(C   5,N   4)                  1.4807         0.400966   
      7. B(C   6,N   4)                  1.4799         0.402253   
      8. B(C   6,C   5)                  1.4725         0.461498   
      9. B(H   7,O   0)                  0.9632         0.513928   
     10. B(H   8,C   1)                  1.0908         0.358991   
     11. B(H   9,C   2)                  1.0844         0.367638   
     12. B(H  10,C   2)                  1.0827         0.369951   
     13. B(H  11,C   3)                  1.0832         0.369236   
     14. B(H  12,N   4)                  1.0152         0.424556   
     15. B(H  13,C   5)                  1.0822         0.370624   
     16. B(H  14,C   5)                  1.0825         0.370152   
     17. B(H  15,C   6)                  1.0822         0.370625   
     18. B(H  16,C   6)                  1.0824         0.370314   
     19. A(C   1,O   0,H   7)          109.8384         0.366685   
     20. A(O   0,C   1,H   8)          116.3381         0.348045   
     21. A(C   2,C   1,H   8)          115.8864         0.329006   
     22. A(O   0,C   1,C   2)          121.1769         0.397459   
     23. A(C   3,C   1,H   8)          117.0562         0.332921   
     24. A(O   0,C   1,C   3)          114.3224         0.402491   
     25. A(C   2,C   1,C   3)           59.9308         0.379450   
     26. A(H   9,C   2,H  10)          115.0777         0.293031   
     27. A(C   3,C   2,H  10)          115.9778         0.332906   
     28. A(C   1,C   2,H  10)          118.6631         0.330645   
     29. A(C   3,C   2,H   9)          119.1674         0.332560   
     30. A(C   1,C   2,H   9)          117.3676         0.330302   
     31. A(C   1,C   2,C   3)           59.3881         0.377462   
     32. A(C   2,C   3,N   4)          120.3202         0.379531   
     33. A(C   2,C   3,H  11)          118.5187         0.332799   
     34. A(N   4,C   3,H  11)          111.7737         0.332271   
     35. A(C   1,C   3,H  11)          116.9609         0.334480   
     36. A(C   1,C   3,C   2)           60.6812         0.382168   
     37. A(C   1,C   3,N   4)          119.9418         0.381533   
     38. A(C   5,N   4,H  12)          114.9476         0.332287   
     39. A(C   3,N   4,H  12)          114.1553         0.337155   
     40. A(C   6,N   4,H  12)          115.1154         0.332463   
     41. A(C   5,N   4,C   6)           59.6500         0.367841   
     42. A(C   3,N   4,C   6)          121.0936         0.373420   
     43. A(C   3,N   4,C   5)          121.2911         0.373214   
     44. A(N   4,C   5,H  14)          114.8680         0.327633   
     45. A(C   6,C   5,H  13)          119.3925         0.337465   
     46. A(N   4,C   5,H  13)          113.4959         0.327701   
     47. A(N   4,C   5,C   6)           60.1455         0.379035   
     48. A(C   6,C   5,H  14)          119.6557         0.337393   
     49. A(H  13,C   5,H  14)          116.2647         0.293430   
     50. A(N   4,C   6,C   5)           60.2044         0.379245   
     51. A(H  15,C   6,H  16)          116.2808         0.293450   
     52. A(C   5,C   6,H  16)          119.6499         0.337417   
     53. A(N   4,C   6,H  16)          114.8645         0.327829   
     54. A(C   5,C   6,H  15)          119.4058         0.337465   
     55. A(N   4,C   6,H  15)          113.4079         0.327875   
     56. D(C   2,C   1,O   0,H   7)     81.4458         0.028405   
     57. D(C   3,C   1,O   0,H   7)    149.7806         0.028405   
     58. D(H   8,C   1,O   0,H   7)    -68.8901         0.028405   
     59. D(H   9,C   2,C   1,H   8)      1.6990         0.013243   
     60. D(H  10,C   2,C   1,C   3)   -104.8679         0.013243   
     61. D(H   9,C   2,C   1,C   3)    109.3525         0.013243   
     62. D(C   3,C   2,C   1,H   8)   -107.6535         0.013243   
     63. D(H  10,C   2,C   1,O   0)     -2.9831         0.013243   
     64. D(H  10,C   2,C   1,H   8)    147.4786         0.013243   
     65. D(C   3,C   2,C   1,O   0)    101.8848         0.013243   
     66. D(H   9,C   2,C   1,O   0)   -148.7627         0.013243   
     67. D(H  11,C   3,C   2,C   1)   -106.6564         0.014352   
     68. D(H  11,C   3,C   2,H   9)    146.9961         0.014352   
     69. D(N   4,C   3,C   1,O   0)    136.5855         0.015238   
     70. D(C   2,C   3,C   1,O   0)   -113.2514         0.015238   
     71. D(N   4,C   3,C   2,H  10)   -141.0748         0.014352   
     72. D(N   4,C   3,C   2,C   1)    109.5549         0.014352   
     73. D(C   1,C   3,C   2,H  10)    109.3703         0.014352   
     74. D(C   1,C   3,C   2,H   9)   -106.3476         0.014352   
     75. D(N   4,C   3,C   1,C   2)   -110.1631         0.015238   
     76. D(H  11,C   3,C   1,H   8)   -145.1011         0.015238   
     77. D(N   4,C   3,C   2,H   9)      3.2074         0.014352   
     78. D(H  11,C   3,C   1,C   2)    109.1891         0.015238   
     79. D(H  11,C   3,C   1,O   0)     -4.0623         0.015238   
     80. D(H  11,C   3,C   2,H  10)      2.7139         0.014352   
     81. D(C   2,C   3,C   1,H   8)    105.7098         0.015238   
     82. D(N   4,C   3,C   1,H   8)     -4.4533         0.015238   
     83. D(C   6,N   4,C   3,C   1)   -107.4756         0.017504   
     84. D(C   5,N   4,C   3,H  11)    -36.0617         0.017504   
     85. D(C   5,N   4,C   3,C   1)   -178.5741         0.017504   
     86. D(C   5,N   4,C   3,C   2)    109.9543         0.017504   
     87. D(H  12,N   4,C   3,H  11)    179.4952         0.017504   
     88. D(H  12,N   4,C   3,C   2)    -34.4888         0.017504   
     89. D(H  12,N   4,C   3,C   1)     36.9828         0.017504   
     90. D(C   6,N   4,C   3,H  11)     35.0368         0.017504   
     91. D(C   6,N   4,C   3,C   2)   -178.9472         0.017504   
     92. D(H  14,C   5,N   4,H  12)      5.6008         0.014692   
     93. D(H  14,C   5,N   4,C   3)   -138.5824         0.014692   
     94. D(H  13,C   5,N   4,H  12)    142.7677         0.014692   
     95. D(H  13,C   5,N   4,C   6)   -111.5632         0.014692   
     96. D(H  13,C   5,N   4,C   3)     -1.4155         0.014692   
     97. D(H  14,C   5,N   4,C   6)    111.2699         0.014692   
     98. D(C   6,C   5,N   4,H  12)   -105.6690         0.014692   
     99. D(C   6,C   5,N   4,C   3)    110.1478         0.014692   
    100. D(H  16,C   6,C   5,H  14)      0.0247         0.016825   
    101. D(H  16,C   6,C   5,N   4)    103.3903         0.016825   
    102. D(H  15,C   6,C   5,H  14)    154.9353         0.016825   
    103. D(H  15,C   6,C   5,H  13)      0.0884         0.016825   
    104. D(N   4,C   6,C   5,H  14)   -103.3655         0.016825   
    105. D(N   4,C   6,C   5,H  13)    101.7876         0.016825   
    106. D(H  16,C   6,N   4,H  12)     -5.8936         0.014786   
    107. D(H  16,C   6,N   4,C   5)   -111.2807         0.014786   
    108. D(H  16,C   6,N   4,C   3)    138.2484         0.014786   
    109. D(H  15,C   6,C   5,N   4)   -101.6992         0.016825   
    110. D(H  15,C   6,N   4,H  12)   -142.9808         0.014786   
    111. D(H  15,C   6,N   4,C   5)    111.6321         0.014786   
    112. D(H  15,C   6,N   4,C   3)      1.1612         0.014786   
    113. D(H  16,C   6,C   5,H  13)   -154.8221         0.016825   
    114. D(C   5,C   6,N   4,H  12)    105.3871         0.014786   
    115. D(C   5,C   6,N   4,C   3)   -110.4709         0.014786   
    -----------------------------------------------------------------

Number of atoms                         .... 17
Number of degrees of freedom            .... 115

         *************************************************************
         *                GEOMETRY OPTIMIZATION CYCLE   1            *
         *************************************************************


           ************************************************************
           *        Program running with 8 parallel MPI-processes     *
           *              working on a common directory               *
           ************************************************************
           ************************************************************
           *              Shut down parallel processing               *
           ************************************************************


           ************************************************************
           *        Program running with 8 parallel MPI-processes     *
           *              working on a common directory               *
           ************************************************************
------------
SCF SETTINGS
------------
Hamiltonian:
 Density Functional     Method          .... DFT(GTOs)
 Exchange Functional    Exchange        .... PBE
   PBE kappa parameter  XKappa          ....  0.804000
 Correlation Functional Correlation     .... PBE
 LDA part of GGA corr.  LDAOpt          .... PW91-LDA
 Gradients option       PostSCFGGA      .... off
 Hybrid DFT is turned on
   Fraction HF Exchange ScalHFX         ....  0.250000
   Scaling of DF-GGA-X  ScalDFX         ....  0.750000
   Scaling of DF-GGA-C  ScalDFC         ....  1.000000
   Scaling of DF-LDA-C  ScalLDAC        ....  1.000000
   Perturbative correction              ....  0.000000
   NL short-range parameter             ....  6.900000


General Settings:
 Integral files         IntName         .... 6475_+
 Hartree-Fock type      HFTyp           .... RHF
 Total Charge           Charge          ....    1
 Multiplicity           Mult            ....    1
 Number of Electrons    NEL             ....   54
 Basis Dimension        Dim             ....  277
 Nuclear Repulsion      ENuc            ....    316.6157438194 Eh

Convergence Acceleration:
 DIIS                   CNVDIIS         .... on
   Start iteration      DIISMaxIt       ....    12
   Startup error        DIISStart       ....  0.200000
   # of expansion vecs  DIISMaxEq       ....     5
   Bias factor          DIISBfac        ....   1.050
   Max. coefficient     DIISMaxC        ....  10.000
 Newton-Raphson         CNVNR           .... off
 SOSCF                  CNVSOSCF        .... on
   Start iteration      SOSCFMaxIt      ....   150
   Startup grad/error   SOSCFStart      ....  0.003300
 Level Shifting         CNVShift        .... on
   Level shift para.    LevelShift      ....    0.2500
   Turn off err/grad.   ShiftErr        ....    0.0010
 Zerner damping         CNVZerner       .... off
 Static damping         CNVDamp         .... on
   Fraction old density DampFac         ....    0.7000
   Max. Damping (<1)    DampMax         ....    0.9800
   Min. Damping (>=0)   DampMin         ....    0.0000
   Turn off err/grad.   DampErr         ....    0.1000
 Fernandez-Rico         CNVRico         .... off

SCF Procedure:
 Maximum # iterations   MaxIter         ....   125
 SCF integral mode      SCFMode         .... Direct
   Integral package                     .... LIBINT
 Reset frequeny         DirectResetFreq ....    20
 Integral Threshold     Thresh          ....  2.500e-11 Eh
 Primitive CutOff       TCut            ....  2.500e-12 Eh

Convergence Tolerance:
 Convergence Check Mode ConvCheckMode   .... Total+1el-Energy
 Energy Change          TolE            ....  1.000e-08 Eh
 1-El. energy change                    ....  1.000e-05 Eh
 Orbital Gradient       TolG            ....  1.000e-05
 Orbital Rotation angle TolX            ....  1.000e-05
 DIIS Error             TolErr          ....  5.000e-07


Diagonalization of the overlap matrix:
Smallest eigenvalue                        ... 1.337e-04
Time for diagonalization                   ...    0.241 sec
Threshold for overlap eigenvalues          ... 1.000e-08
Number of eigenvalues below threshold      ... 0
Time for construction of square roots      ...    0.020 sec
Total time needed                          ...    0.261 sec

-------------------
DFT GRID GENERATION
-------------------

General Integration Accuracy     IntAcc      ...  4.340
Radial Grid Type                 RadialGrid  ... Gauss-Chebyshev
Angular Grid (max. acc.)         AngularGrid ... Lebedev-194
Angular grid pruning method      GridPruning ... 3 (G Style)
Weight generation scheme         WeightScheme... Becke
Basis function cutoff            BFCut       ...    1.0000e-11
Integration weight cutoff        WCut        ...    1.0000e-14
Grids for H and He will be reduced by one unit

# of grid points (after initial pruning)     ...  38362 (   0.0 sec)
# of grid points (after weights+screening)   ...  35287 (   0.2 sec)
nearest neighbour list constructed           ...    0.0 sec
Grid point re-assignment to atoms done       ...    0.0 sec
Grid point division into batches done        ...    0.1 sec
Reduced shell lists constructed in    0.2 sec

Total number of grid points                  ...    35287
Total number of batches                      ...      561
Average number of points per batch           ...       62
Average number of grid points per atom       ...     2076
Average number of shells per batch           ...    82.44 (70.47%)
Average number of basis functions per batch  ...   198.97 (71.83%)
Average number of large shells per batch     ...    65.42 (79.35%)
Average number of large basis fcns per batch ...   158.11 (79.46%)
Maximum spatial batch extension              ...  16.60, 14.33, 11.47 au
Average spatial batch extension              ...   0.25,  0.24,  0.23 au

Time for grid setup =    0.540 sec

Loading Hartree-Fock densities                     ... done
Calculating cut-offs                               ... done
Setting up the integral package                    ... done
Initializing the effective Hamiltonian             ... done
Starting the Coulomb interaction                   ... done (   0.0 sec)
Reading the grid                                   ... done
Mapping shells                                     ... done
Starting the XC term evaluation                    ... done (   0.4 sec)
  promolecular density results
     # of electrons  =     54.995407238
     EX              =    -43.313683413
     EC              =     -1.829459305
     EX+EC           =    -45.143142718
Transforming the Hamiltonian                       ... done (   0.0 sec)
Diagonalizing the Hamiltonian                      ... done (   0.0 sec)
Back transforming the eigenvectors                 ... done (   0.0 sec)
Now organizing SCF variables                       ... done
--------------
SCF ITERATIONS
--------------
ITER       Energy         Delta-E        Max-DP      RMS-DP      [F,P]     Damp
               ***  Starting incremental Fock matrix formation  ***
  0   -325.8141742176   0.000000000000 0.11606041  0.00132180  0.2325297 0.7000
  1   -325.8753817119  -0.061207494289 0.09764271  0.00106573  0.0986620 0.7000
                               ***Turning on DIIS***
  2   -325.9010672860  -0.025685574100 0.11855719  0.00161080  0.0304523 0.0000
  3   -325.9416165530  -0.040549267029 0.09197456  0.00088773  0.0574841 0.0000
  4   -325.9498657650  -0.008249211959 0.01581459  0.00019648  0.0064171 0.0000
  5   -325.9501181088  -0.000252343758 0.00740351  0.00009103  0.0054692 0.0000
                      *** Initiating the SOSCF procedure ***
                           *** Shutting down DIIS ***
                      *** Re-Reading the Fockian *** 
                      *** Removing any level shift *** 
ITER      Energy       Delta-E        Grad      Rot      Max-DP    RMS-DP
  6   -325.95015710  -0.0000389947  0.000108  0.000108  0.002707  0.000043
               *** Restarting incremental Fock matrix formation ***
  7   -325.95015826  -0.0000011583  0.000051  0.000082  0.000374  0.000005
  8   -325.95015821   0.0000000530  0.000057  0.000041  0.000293  0.000003
                  ***Gradient check signals convergence***
              ***Rediagonalizing the Fockian in SOSCF/NRSCF***

               *****************************************************
               *                     SUCCESS                       *
               *           SCF CONVERGED AFTER   9 CYCLES          *
               *****************************************************

Setting up the final grid:

General Integration Accuracy     IntAcc      ...  5.010
Radial Grid Type                 RadialGrid  ... Gauss-Chebyshev
Angular Grid (max. acc.)         AngularGrid ... Lebedev-434
Angular grid pruning method      GridPruning ... 3 (G Style)
Weight generation scheme         WeightScheme... Becke
Basis function cutoff            BFCut       ...    1.0000e-11
Integration weight cutoff        WCut        ...    1.0000e-14
Grids for H and He will be reduced by one unit

# of grid points (after initial pruning)     ... 141842 (   0.0 sec)
# of grid points (after weights+screening)   ... 128975 (   1.6 sec)
nearest neighbour list constructed           ...    0.0 sec
Grid point re-assignment to atoms done       ...    0.0 sec
Grid point division into batches done        ...    1.0 sec
Reduced shell lists constructed in    1.3 sec

Total number of grid points                  ...   128975
Total number of batches                      ...     2023
Average number of points per batch           ...       63
Average number of grid points per atom       ...     7587
Average number of shells per batch           ...    80.50 (68.80%)
Average number of basis functions per batch  ...   194.28 (70.14%)
Average number of large shells per batch     ...    63.23 (78.55%)
Average number of large basis fcns per batch ...   152.27 (78.38%)
Maximum spatial batch extension              ...  14.46, 13.38,  9.37 au
Average spatial batch extension              ...   0.16,  0.16,  0.15 au

Final grid set up in    3.5 sec
Final integration                            ... done (   1.0 sec)
Change in XC energy                          ...     0.000310741
Integrated number of electrons               ...    53.999955528
Previous integrated no of electrons          ...    53.999432957
Total Energy       :         -325.94984768 Eh           -8869.54627 eV
  Last Energy change         ...   -2.0761e-07  Tolerance :   1.0000e-08
  Last MAX-Density change    ...    5.7741e-06  Tolerance :   1.0000e-07
             **** THE GBW FILE WAS UPDATED (6475_+.gbw) ****
             **** DENSITY FILE WAS UPDATED (6475_+.scfp.tmp) ****
             **** ENERGY FILE WAS UPDATED (6475_+.en.tmp) ****
Total SCF time: 0 days 0 hours 1 min 10 sec 
           ************************************************************
           *              Shut down parallel processing               *
           ************************************************************

-------------------------   --------------------
FINAL SINGLE POINT ENERGY      -325.949847675201
-------------------------   --------------------



           ************************************************************
           *        Program running with 8 parallel MPI-processes     *
           *              working on a common directory               *
           ************************************************************
------------------------------------------------------------------------------
                         ORCA SCF GRADIENT CALCULATION
------------------------------------------------------------------------------

Gradient of the Kohn-Sham DFT energy:
Kohn-Sham wavefunction type      ... RKS
Hartree-Fock exchange scaling    ...    0.250
Number of operators              ...    1
Number of atoms                  ...   17
Basis set dimensions             ...  277
Integral neglect threshold       ... 2.5e-11
Integral primitive cutoff        ... 2.5e-12

Nuclear repulsion gradient       ... done
One Electron Gradient            ... done
Pre-screening matrix             ... done
Starting the two electron gradient:
Two electron gradient done
Exchange-correlation gradient    ... done

------------------
CARTESIAN GRADIENT
------------------

   1   O   :   -0.000092998    0.000110134    0.000051830
   2   C   :    0.000306932   -0.000102515    0.000000211
   3   C   :   -0.000115175    0.000101873   -0.000210630
   4   C   :   -0.000254078   -0.000048065    0.000006652
   5   N   :    0.000158731   -0.000080859    0.000023453
   6   C   :   -0.000255085    0.000122930   -0.000095645
   7   C   :    0.000070232    0.000095363    0.000219059
   8   H   :    0.000023555   -0.000017101    0.000084849
   9   H   :   -0.000000848    0.000010056    0.000012287
  10   H   :    0.000016241    0.000046364    0.000016735
  11   H   :    0.000004772    0.000006734    0.000029971
  12   H   :    0.000087211   -0.000069450    0.000082145
  13   H   :    0.000015303    0.000043328   -0.000005240
  14   H   :    0.000023156   -0.000042516   -0.000099356
  15   H   :   -0.000016738   -0.000053828   -0.000053197
  16   H   :   -0.000004390   -0.000099307   -0.000070914
  17   H   :    0.000033180   -0.000023141    0.000007792

Norm of the cartesian gradient     ...    0.000717517
RMS gradient                       ...    0.000100472
MAX gradient                       ...    0.000306932

-------
TIMINGS
-------

Total SCF gradient time            ...       32.554 sec

One electron gradient       ....       0.136 sec  (  0.4%)
Prescreening matrices       ....       0.409 sec  (  1.3%)
Two electron gradient       ....      26.431 sec  ( 81.2%)
XC gradient                 ....       3.405 sec  ( 10.5%)
           ************************************************************
           *              Shut down parallel processing               *
           ************************************************************
------------------------------------------------------------------------------
                         ORCA GEOMETRY RELAXATION STEP
------------------------------------------------------------------------------

Reading the OPT-File                    .... done
Getting information on internals        .... done
Copying old internal coords+grads       .... done
Making the new internal coordinates     .... (new redundants).... done
Validating the new internal coordinates .... (new redundants).... done
Calculating the B-matrix                .... done
Calculating the G,G- and P matrices     .... done
Transforming gradient to internals      .... done
Projecting the internal gradient        .... done
Number of atoms                         ....  17
Number of internal coordinates          .... 115
Current Energy                          ....  -325.949847675 Eh
Current gradient norm                   ....     0.000717517 Eh/bohr
Maximum allowed component of the step   ....  0.300
Current trust radius                    ....  0.300
Evaluating the initial hessian          ....  (Almloef) done
Projecting the Hessian                  .... done
Forming the augmented Hessian           .... done
Diagonalizing the augmented Hessian     .... done
Last element of RFO vector              ....  0.999992682
Lowest eigenvalues of augmented Hessian:
 -0.000001024  0.017504339  0.028405301  0.035729657  0.036190661
Length of the computed step             ....  0.003825605
The final length of the internal step   ....  0.003825605
Converting the step to cartesian space:
 Initial RMS(Int)=    0.0003567395
Transforming coordinates:
 Iter   0:  RMS(Cart)=    0.0008975562 RMS(Int)=    0.0003567182
 Iter   1:  RMS(Cart)=    0.0000003127 RMS(Int)=    0.0000001868
 Iter   2:  RMS(Cart)=    0.0000000002 RMS(Int)=    0.0000000001
done
Storing new coordinates                 .... done

                                .--------------------.
          ----------------------|Geometry convergence|---------------------
          Item                value                 Tolerance   Converged
          -----------------------------------------------------------------
          RMS gradient        0.00004635            0.00003000      NO
          MAX gradient        0.00016949            0.00010000      NO
          RMS step            0.00035674            0.00060000      YES
          MAX step            0.00153038            0.00100000      NO
          ....................................................
          Max(Bonds)      0.0002      Max(Angles)    0.02
          Max(Dihed)        0.09      Max(Improp)    0.00
          -----------------------------------------------------------------

The optimization has not yet converged - more geometry cycles are needed


    ---------------------------------------------------------------------------
                         Redundant Internal Coordinates
                            (Angstroem and degrees)

        Definition                    Value    dE/dq     Step     New-Value
    ----------------------------------------------------------------------------
     1. B(C   1,O   0)                1.3737  0.000169 -0.0002    1.3735   
     2. B(C   2,C   1)                1.5054  0.000127 -0.0002    1.5052   
     3. B(C   3,C   1)                1.4860  0.000053 -0.0001    1.4859   
     4. B(C   3,C   2)                1.4942 -0.000116  0.0002    1.4944   
     5. B(N   4,C   3)                1.4569  0.000077 -0.0001    1.4568   
     6. B(C   5,N   4)                1.4807  0.000161 -0.0002    1.4805   
     7. B(C   6,N   4)                1.4799 -0.000048  0.0001    1.4800   
     8. B(C   6,C   5)                1.4725  0.000158 -0.0002    1.4722   
     9. B(H   7,O   0)                0.9632  0.000073 -0.0001    0.9631   
    10. B(H   8,C   1)                1.0908 -0.000008  0.0000    1.0909   
    11. B(H   9,C   2)                1.0844 -0.000046  0.0001    1.0844   
    12. B(H  10,C   2)                1.0827  0.000009 -0.0000    1.0826   
    13. B(H  11,C   3)                1.0832 -0.000086  0.0001    1.0833   
    14. B(H  12,N   4)                1.0152 -0.000030  0.0000    1.0152   
    15. B(H  13,C   5)                1.0822 -0.000054  0.0001    1.0822   
    16. B(H  14,C   5)                1.0825  0.000070 -0.0001    1.0824   
    17. B(H  15,C   6)                1.0822 -0.000121  0.0002    1.0823   
    18. B(H  16,C   6)                1.0824  0.000032 -0.0000    1.0823   
    19. A(C   1,O   0,H   7)          109.84  0.000071   -0.01    109.83   
    20. A(O   0,C   1,H   8)          116.34 -0.000004   -0.01    116.33   
    21. A(C   2,C   1,H   8)          115.89  0.000034   -0.01    115.88   
    22. A(O   0,C   1,C   2)          121.18 -0.000009    0.01    121.18   
    23. A(C   3,C   1,H   8)          117.06  0.000027   -0.00    117.05   
    24. A(O   0,C   1,C   3)          114.32  0.000004    0.01    114.33   
    25. A(C   2,C   1,C   3)           59.93 -0.000084    0.02     59.95   
    26. A(H   9,C   2,H  10)          115.08  0.000019   -0.00    115.07   
    27. A(C   3,C   2,H  10)          115.98 -0.000011   -0.00    115.97   
    28. A(C   1,C   2,H  10)          118.66 -0.000014    0.01    118.67   
    29. A(C   3,C   2,H   9)          119.17 -0.000008    0.00    119.17   
    30. A(C   1,C   2,H   9)          117.37 -0.000011    0.00    117.37   
    31. A(C   1,C   2,C   3)           59.39  0.000019   -0.00     59.39   
    32. A(C   2,C   3,N   4)          120.32 -0.000028   -0.00    120.32   
    33. A(C   2,C   3,H  11)          118.52 -0.000031   -0.00    118.51   
    34. A(N   4,C   3,H  11)          111.77  0.000065   -0.01    111.76   
    35. A(C   1,C   3,H  11)          116.96 -0.000044    0.02    116.98   
    36. A(C   1,C   3,C   2)           60.68  0.000066   -0.01     60.67   
    37. A(C   1,C   3,N   4)          119.94 -0.000047    0.01    119.96   
    38. A(C   5,N   4,H  12)          114.95 -0.000023    0.01    114.95   
    39. A(C   3,N   4,H  12)          114.16  0.000022   -0.00    114.15   
    40. A(C   6,N   4,H  12)          115.12 -0.000016    0.00    115.12   
    41. A(C   5,N   4,C   6)           59.65  0.000042   -0.01     59.64   
    42. A(C   3,N   4,C   6)          121.09 -0.000025    0.01    121.11   
    43. A(C   3,N   4,C   5)          121.29  0.000002   -0.02    121.27   
    44. A(N   4,C   5,H  14)          114.87  0.000011    0.01    114.88   
    45. A(C   6,C   5,H  13)          119.39  0.000048   -0.01    119.38   
    46. A(N   4,C   5,H  13)          113.50  0.000067   -0.02    113.48   
    47. A(N   4,C   5,C   6)           60.15 -0.000086    0.01     60.16   
    48. A(C   6,C   5,H  14)          119.66  0.000021   -0.00    119.65   
    49. A(H  13,C   5,H  14)          116.26 -0.000058    0.01    116.28   
    50. A(N   4,C   6,C   5)           60.20  0.000044   -0.01     60.20   
    51. A(H  15,C   6,H  16)          116.28  0.000016   -0.00    116.28   
    52. A(C   5,C   6,H  16)          119.65 -0.000016   -0.00    119.65   
    53. A(N   4,C   6,H  16)          114.86 -0.000035    0.01    114.87   
    54. A(C   5,C   6,H  15)          119.41 -0.000002    0.00    119.41   
    55. A(N   4,C   6,H  15)          113.41 -0.000004    0.00    113.41   
    56. D(C   2,C   1,O   0,H   7)     81.45  0.000071   -0.05     81.39   
    57. D(C   3,C   1,O   0,H   7)    149.78 -0.000030   -0.03    149.75   
    58. D(H   8,C   1,O   0,H   7)    -68.89  0.000017   -0.03    -68.92   
    59. D(H   9,C   2,C   1,H   8)      1.70  0.000013   -0.00      1.70   
    60. D(H  10,C   2,C   1,C   3)   -104.87 -0.000001    0.01   -104.86   
    61. D(H   9,C   2,C   1,C   3)    109.35  0.000002    0.00    109.35   
    62. D(C   3,C   2,C   1,H   8)   -107.65  0.000011   -0.01   -107.66   
    63. D(H  10,C   2,C   1,O   0)     -2.98 -0.000033    0.02     -2.96   
    64. D(H  10,C   2,C   1,H   8)    147.48  0.000010    0.00    147.48   
    65. D(C   3,C   2,C   1,O   0)    101.88 -0.000032    0.01    101.90   
    66. D(H   9,C   2,C   1,O   0)   -148.76 -0.000030    0.02   -148.75   
    67. D(H  11,C   3,C   2,C   1)   -106.66  0.000014   -0.02   -106.68   
    68. D(H  11,C   3,C   2,H   9)    147.00  0.000016   -0.02    146.98   
    69. D(N   4,C   3,C   1,O   0)    136.59  0.000022    0.01    136.59   
    70. D(C   2,C   3,C   1,O   0)   -113.25  0.000034   -0.01   -113.26   
    71. D(N   4,C   3,C   2,H  10)   -141.07 -0.000024    0.02   -141.05   
    72. D(N   4,C   3,C   2,C   1)    109.55 -0.000019    0.01    109.57   
    73. D(C   1,C   3,C   2,H  10)    109.37 -0.000006    0.01    109.38   
    74. D(C   1,C   3,C   2,H   9)   -106.35  0.000003    0.00   -106.35   
    75. D(N   4,C   3,C   1,C   2)   -110.16 -0.000011    0.02   -110.15   
    76. D(H  11,C   3,C   1,H   8)   -145.10  0.000002   -0.02   -145.12   
    77. D(N   4,C   3,C   2,H   9)      3.21 -0.000016    0.02      3.22   
    78. D(H  11,C   3,C   1,C   2)    109.19  0.000003   -0.02    109.17   
    79. D(H  11,C   3,C   1,O   0)     -4.06  0.000037   -0.03     -4.09   
    80. D(H  11,C   3,C   2,H  10)      2.71  0.000008   -0.01      2.70   
    81. D(C   2,C   3,C   1,H   8)    105.71 -0.000002   -0.00    105.70   
    82. D(N   4,C   3,C   1,H   8)     -4.45 -0.000013    0.01     -4.44   
    83. D(C   6,N   4,C   3,C   1)   -107.48  0.000045    0.02   -107.46   
    84. D(C   5,N   4,C   3,H  11)    -36.06 -0.000048    0.07    -35.99   
    85. D(C   5,N   4,C   3,C   1)   -178.57  0.000003    0.03   -178.55   
    86. D(C   5,N   4,C   3,C   2)    109.95 -0.000047    0.04    109.99   
    87. D(H  12,N   4,C   3,H  11)    179.50 -0.000042    0.09    179.58   
    88. D(H  12,N   4,C   3,C   2)    -34.49 -0.000041    0.06    -34.43   
    89. D(H  12,N   4,C   3,C   1)     36.98  0.000008    0.05     37.03   
    90. D(C   6,N   4,C   3,H  11)     35.04 -0.000005    0.06     35.10   
    91. D(C   6,N   4,C   3,C   2)   -178.95 -0.000004    0.03   -178.92   
    92. D(H  14,C   5,N   4,H  12)      5.60 -0.000008   -0.00      5.60   
    93. D(H  14,C   5,N   4,C   3)   -138.58 -0.000017    0.02   -138.57   
    94. D(H  13,C   5,N   4,H  12)    142.77 -0.000010    0.01    142.77   
    95. D(H  13,C   5,N   4,C   6)   -111.56 -0.000006    0.00   -111.56   
    96. D(H  13,C   5,N   4,C   3)     -1.42 -0.000020    0.03     -1.39   
    97. D(H  14,C   5,N   4,C   6)    111.27 -0.000003   -0.00    111.27   
    98. D(C   6,C   5,N   4,H  12)   -105.67 -0.000004    0.00   -105.67   
    99. D(C   6,C   5,N   4,C   3)    110.15 -0.000014    0.02    110.17   
   100. D(H  16,C   6,C   5,H  14)      0.02  0.000019   -0.01      0.02   
   101. D(H  16,C   6,C   5,N   4)    103.39 -0.000016    0.01    103.40   
   102. D(H  15,C   6,C   5,H  14)    154.94  0.000019   -0.02    154.92   
   103. D(H  15,C   6,C   5,H  13)      0.09  0.000006   -0.01      0.08   
   104. D(N   4,C   6,C   5,H  14)   -103.37  0.000035   -0.02   -103.38   
   105. D(N   4,C   6,C   5,H  13)    101.79  0.000022   -0.01    101.78   
   106. D(H  16,C   6,N   4,H  12)     -5.89 -0.000014    0.01     -5.88   
   107. D(H  16,C   6,N   4,C   5)   -111.28 -0.000008    0.01   -111.27   
   108. D(H  16,C   6,N   4,C   3)    138.25 -0.000039    0.04    138.29   
   109. D(H  15,C   6,C   5,N   4)   -101.70 -0.000016    0.00   -101.70   
   110. D(H  15,C   6,N   4,H  12)   -142.98  0.000005    0.00   -142.98   
   111. D(H  15,C   6,N   4,C   5)    111.63  0.000010   -0.00    111.63   
   112. D(H  15,C   6,N   4,C   3)      1.16 -0.000020    0.03      1.19   
   113. D(H  16,C   6,C   5,H  13)   -154.82  0.000006    0.00   -154.82   
   114. D(C   5,C   6,N   4,H  12)    105.39 -0.000006    0.00    105.39   
   115. D(C   5,C   6,N   4,C   3)   -110.47 -0.000030    0.03   -110.44   
    ----------------------------------------------------------------------------

         *************************************************************
         *                GEOMETRY OPTIMIZATION CYCLE   2            *
         *************************************************************
---------------------------------
CARTESIAN COORDINATES (ANGSTROEM)
---------------------------------
  O     -0.000437    0.000274    2.514817
  C      0.112600   -0.701421    1.339460
  C     -1.104904   -1.210973    0.615751
  C     -0.398783    0.019029    0.144742
  N      0.362323   -0.000067   -1.097301
  C     -0.103826    0.733783   -2.295700
  C      1.087749    1.200935   -1.568077
  H     -0.116154   -0.610747    3.250223
  H      1.022696   -1.289261    1.212479
  H     -1.000170   -2.130034    0.049763
  H     -2.078177   -1.056650    1.064118
  H     -0.867138    0.981066    0.314079
  H      0.822850   -0.884327   -1.288769
  H     -1.048126    1.241985   -2.149886
  H      0.014229    0.200942   -3.230442
  H      1.003102    2.045305   -0.896278
  H      2.072509    1.008104   -1.973695

----------------------------
CARTESIAN COORDINATES (A.U.)
----------------------------
  NO LB      ZA    FRAG    MASS        X           Y           Z
   0 O     8.0000    0    15.999         -0.000825933872445          0.000517696881984          4.752315281078389
   1 C     6.0000    0    12.011          0.212783391355957         -1.325493215622816          2.531211857780290
   2 C     6.0000    0    12.011         -2.087966516370320         -2.288407477477493          1.163600034076669
   3 C     6.0000    0    12.011         -0.753590246333476          0.035959658141427          0.273522514250074
   4 N     7.0000    0    14.007          0.684691771829733         -0.000126990608954         -2.073598052616399
   5 C     6.0000    0    12.011         -0.196202919683603          1.386649499589093         -4.338243881539367
   6 C     6.0000    0    12.011          2.055548184057042          2.269438736641028         -2.963235959583359
   7 H     1.0000    0     1.008         -0.219499277833088         -1.154144475517925          6.142031722955469
   8 H     1.0000    0     1.008          1.932616011720249         -2.436350443846985          2.291253421838614
   9 H     1.0000    0     1.008         -1.890046816199337         -4.025180647748954          0.094038880642966
  10 H     1.0000    0     1.008         -3.927185088853097         -1.996778178323545          2.010892393962685
  11 H     1.0000    0     1.008         -1.638652604303425          1.853946298932181          0.593522511001768
  12 H     1.0000    0     1.008          1.554961967866905         -1.671135643608638         -2.435420915637237
  13 H     1.0000    0     1.008         -1.980671368028422          2.347011750066225         -4.062696004972416
  14 H     1.0000    0     1.008          0.026888784970321          0.379725987211132         -6.104651079396159
  15 H     1.0000    0     1.008          1.895588627642500          3.865066502041190         -1.693719647632237
  16 H     1.0000    0     1.008          3.916474926344556          1.905040153931820         -3.729742178094968

--------------------------------
INTERNAL COORDINATES (ANGSTROEM)
--------------------------------
 O      0   0   0   0.000000     0.000     0.000
 C      1   0   0   1.373542     0.000     0.000
 C      2   1   0   1.505229   121.185     0.000
 C      2   1   3   1.485904   114.331    68.359
 N      4   2   1   1.456817   119.956   136.592
 C      5   4   2   1.480538   121.273   181.454
 C      6   5   4   1.472249    60.159   110.170
 H      1   2   3   0.963099   109.827    81.392
 H      2   1   3   1.090851   116.332   209.685
 H      3   2   1   1.084428   117.369   211.254
 H      3   2   1   1.082640   118.670   357.040
 H      4   2   1   1.083304   116.981   355.910
 H      5   4   2   1.015215   114.155    37.028
 H      6   5   4   1.082235   113.480   358.610
 H      6   5   4   1.082405   114.877   221.435
 H      7   6   5   1.082331   119.407   258.301
 H      7   6   5   1.082341   119.646   103.399

---------------------------
INTERNAL COORDINATES (A.U.)
---------------------------
 O      0   0   0   0.000000     0.000     0.000
 C      1   0   0   2.595618     0.000     0.000
 C      2   1   0   2.844471   121.185     0.000
 C      2   1   3   2.807952   114.331    68.359
 N      4   2   1   2.752986   119.956   136.592
 C      5   4   2   2.797811   121.273   181.454
 C      6   5   4   2.782148    60.159   110.170
 H      1   2   3   1.819993   109.827    81.392
 H      2   1   3   2.061409   116.332   209.685
 H      3   2   1   2.049272   117.369   211.254
 H      3   2   1   2.045893   118.670   357.040
 H      4   2   1   2.047147   116.981   355.910
 H      5   4   2   1.918477   114.155    37.028
 H      6   5   4   2.045128   113.480   358.610
 H      6   5   4   2.045448   114.877   221.435
 H      7   6   5   2.045308   119.407   258.301
 H      7   6   5   2.045328   119.646   103.399



           ************************************************************
           *        Program running with 8 parallel MPI-processes     *
           *              working on a common directory               *
           ************************************************************
           ************************************************************
           *              Shut down parallel processing               *
           ************************************************************


           ************************************************************
           *        Program running with 8 parallel MPI-processes     *
           *              working on a common directory               *
           ************************************************************

Diagonalization of the overlap matrix:
Smallest eigenvalue                        ... 1.337e-04
Time for diagonalization                   ...    0.245 sec
Threshold for overlap eigenvalues          ... 1.000e-08
Number of eigenvalues below threshold      ... 0
Time for construction of square roots      ...    0.025 sec
Total time needed                          ...    0.270 sec

-------------------
DFT GRID GENERATION
-------------------

General Integration Accuracy     IntAcc      ...  4.340
Radial Grid Type                 RadialGrid  ... Gauss-Chebyshev
Angular Grid (max. acc.)         AngularGrid ... Lebedev-194
Angular grid pruning method      GridPruning ... 3 (G Style)
Weight generation scheme         WeightScheme... Becke
Basis function cutoff            BFCut       ...    1.0000e-11
Integration weight cutoff        WCut        ...    1.0000e-14
Grids for H and He will be reduced by one unit

# of grid points (after initial pruning)     ...  38362 (   0.0 sec)
# of grid points (after weights+screening)   ...  35288 (   0.1 sec)
nearest neighbour list constructed           ...    0.0 sec
Grid point re-assignment to atoms done       ...    0.0 sec
Grid point division into batches done        ...    0.1 sec
Reduced shell lists constructed in    0.1 sec

Total number of grid points                  ...    35288
Total number of batches                      ...      561
Average number of points per batch           ...       62
Average number of grid points per atom       ...     2076
Average number of shells per batch           ...    82.47 (70.49%)
Average number of basis functions per batch  ...   199.03 (71.85%)
Average number of large shells per batch     ...    65.36 (79.25%)
Average number of large basis fcns per batch ...   157.81 (79.29%)
Maximum spatial batch extension              ...  16.60, 14.33, 11.47 au
Average spatial batch extension              ...   0.25,  0.24,  0.23 au

Time for grid setup =    0.597 sec

--------------
SCF ITERATIONS
--------------
ITER       Energy         Delta-E        Max-DP      RMS-DP      [F,P]     Damp
               ***  Starting incremental Fock matrix formation  ***
                      *** Initiating the SOSCF procedure ***
                      *** Re-Reading the Fockian *** 
                      *** Removing any level shift *** 
ITER      Energy       Delta-E        Grad      Rot      Max-DP    RMS-DP
  0   -325.95015891 -325.9501589114  0.000075  0.000075  0.000381  0.000005
               *** Restarting incremental Fock matrix formation ***
  1   -325.95015956  -0.0000006461  0.000021  0.000032  0.000171  0.000002
  2   -325.95015961  -0.0000000529  0.000010  0.000016  0.000073  0.000001
  3   -325.95015961  -0.0000000015  0.000010  0.000007  0.000035  0.000001
                  ***Gradient check signals convergence***
              ***Rediagonalizing the Fockian in SOSCF/NRSCF***

               *****************************************************
               *                     SUCCESS                       *
               *           SCF CONVERGED AFTER   4 CYCLES          *
               *****************************************************

Setting up the final grid:

General Integration Accuracy     IntAcc      ...  5.010
Radial Grid Type                 RadialGrid  ... Gauss-Chebyshev
Angular Grid (max. acc.)         AngularGrid ... Lebedev-434
Angular grid pruning method      GridPruning ... 3 (G Style)
Weight generation scheme         WeightScheme... Becke
Basis function cutoff            BFCut       ...    1.0000e-11
Integration weight cutoff        WCut        ...    1.0000e-14
Grids for H and He will be reduced by one unit

# of grid points (after initial pruning)     ... 141842 (   0.0 sec)
# of grid points (after weights+screening)   ... 128974 (   2.2 sec)
nearest neighbour list constructed           ...    0.0 sec
Grid point re-assignment to atoms done       ...    0.0 sec
Grid point division into batches done        ...    1.0 sec
Reduced shell lists constructed in    1.3 sec

Total number of grid points                  ...   128974
Total number of batches                      ...     2024
Average number of points per batch           ...       63
Average number of grid points per atom       ...     7587
Average number of shells per batch           ...    80.50 (68.80%)
Average number of basis functions per batch  ...   194.26 (70.13%)
Average number of large shells per batch     ...    63.28 (78.62%)
Average number of large basis fcns per batch ...   152.44 (78.47%)
Maximum spatial batch extension              ...  14.46, 13.38,  9.37 au
Average spatial batch extension              ...   0.16,  0.16,  0.15 au

Final grid set up in    4.4 sec
Final integration                            ... done (   1.1 sec)
Change in XC energy                          ...     0.000311146
Integrated number of electrons               ...    53.999955399
Previous integrated no of electrons          ...    53.999433437
Total Energy       :         -325.94984847 Eh           -8869.54630 eV
  Last Energy change         ...   -5.7668e-09  Tolerance :   1.0000e-08
  Last MAX-Density change    ...    5.1875e-06  Tolerance :   1.0000e-07
             **** THE GBW FILE WAS UPDATED (6475_+.gbw) ****
             **** DENSITY FILE WAS UPDATED (6475_+.scfp.tmp) ****
             **** ENERGY FILE WAS UPDATED (6475_+.en.tmp) ****
Total SCF time: 0 days 0 hours 0 min 36 sec 
           ************************************************************
           *              Shut down parallel processing               *
           ************************************************************

-------------------------   --------------------
FINAL SINGLE POINT ENERGY      -325.949848471684
-------------------------   --------------------



           ************************************************************
           *        Program running with 8 parallel MPI-processes     *
           *              working on a common directory               *
           ************************************************************
------------------------------------------------------------------------------
                         ORCA SCF GRADIENT CALCULATION
------------------------------------------------------------------------------

Gradient of the Kohn-Sham DFT energy:
Kohn-Sham wavefunction type      ... RKS
Hartree-Fock exchange scaling    ...    0.250
Number of operators              ...    1
Number of atoms                  ...   17
Basis set dimensions             ...  277
Integral neglect threshold       ... 2.5e-11
Integral primitive cutoff        ... 2.5e-12

Nuclear repulsion gradient       ... done
One Electron Gradient            ... done
Pre-screening matrix             ... done
Starting the two electron gradient:
Two electron gradient done
Exchange-correlation gradient    ... done

------------------
CARTESIAN GRADIENT
------------------

   1   O   :   -0.000078949    0.000022216    0.000004540
   2   C   :    0.000185436   -0.000061758    0.000028507
   3   C   :   -0.000078503    0.000089697   -0.000109726
   4   C   :   -0.000129964   -0.000065270   -0.000016571
   5   N   :    0.000062412   -0.000012512    0.000030925
   6   C   :   -0.000083950    0.000054342   -0.000042704
   7   C   :    0.000040701   -0.000037462    0.000052924
   8   H   :    0.000030268    0.000012396    0.000004892
   9   H   :   -0.000008327    0.000002535    0.000021726
  10   H   :    0.000017833    0.000002534    0.000001106
  11   H   :    0.000011817    0.000000598    0.000024067
  12   H   :    0.000043666    0.000011445    0.000060589
  13   H   :    0.000022041    0.000012398   -0.000005795
  14   H   :   -0.000014503   -0.000012802   -0.000055749
  15   H   :   -0.000003341   -0.000017510    0.000007498
  16   H   :   -0.000016297   -0.000000877   -0.000005943
  17   H   :   -0.000000340    0.000000028   -0.000000286

Norm of the cartesian gradient     ...    0.000359658
RMS gradient                       ...    0.000050362
MAX gradient                       ...    0.000185436

-------
TIMINGS
-------

Total SCF gradient time            ...       33.118 sec

One electron gradient       ....       0.167 sec  (  0.5%)
Prescreening matrices       ....       0.375 sec  (  1.1%)
Two electron gradient       ....      25.781 sec  ( 77.8%)
XC gradient                 ....       3.130 sec  (  9.5%)
           ************************************************************
           *              Shut down parallel processing               *
           ************************************************************
------------------------------------------------------------------------------
                         ORCA GEOMETRY RELAXATION STEP
------------------------------------------------------------------------------

Reading the OPT-File                    .... done
Getting information on internals        .... done
Copying old internal coords+grads       .... done
Making the new internal coordinates     .... (new redundants).... done
Validating the new internal coordinates .... (new redundants).... done
Calculating the B-matrix                .... done
Calculating the G,G- and P matrices     .... done
Transforming gradient to internals      .... done
Projecting the internal gradient        .... done
Number of atoms                         ....  17
Number of internal coordinates          .... 115
Current Energy                          ....  -325.949848472 Eh
Current gradient norm                   ....     0.000359658 Eh/bohr
Maximum allowed component of the step   ....  0.300
Current trust radius                    ....  0.300
Updating the Hessian (BFGS)             .... done
Forming the augmented Hessian           .... done
Diagonalizing the augmented Hessian     .... done
Last element of RFO vector              ....  0.999973842
Lowest eigenvalues of augmented Hessian:
 -0.000000857  0.012060846  0.026265734  0.034796291  0.035777671
Length of the computed step             ....  0.007233163
The final length of the internal step   ....  0.007233163
Converting the step to cartesian space:
 Initial RMS(Int)=    0.0006744959
Transforming coordinates:
 Iter   0:  RMS(Cart)=    0.0016130104 RMS(Int)=    0.0006744615
 Iter   1:  RMS(Cart)=    0.0000009781 RMS(Int)=    0.0000005842
 Iter   2:  RMS(Cart)=    0.0000000013 RMS(Int)=    0.0000000007
done
Storing new coordinates                 .... done

                                .--------------------.
          ----------------------|Geometry convergence|---------------------
          Item                value                 Tolerance   Converged
          -----------------------------------------------------------------
          Energy change      -0.00000080            0.00000100      YES
          RMS gradient        0.00001952            0.00003000      YES
          MAX gradient        0.00006477            0.00010000      YES
          RMS step            0.00067450            0.00060000      NO
          MAX step            0.00288921            0.00100000      NO
          ....................................................
          Max(Bonds)      0.0003      Max(Angles)    0.03
          Max(Dihed)        0.17      Max(Improp)    0.00
          -----------------------------------------------------------------

       The energies and gradients are converged
       and the convergence on bond distances, angles, dihedrals and impropers
       is acceptable.
       Convergence will therefore be signaled now


                    ***********************HURRAY********************
                    ***        THE OPTIMIZATION HAS CONVERGED     ***
                    *************************************************


    ---------------------------------------------------------------------------
                         Redundant Internal Coordinates

                          --- Optimized Parameters ---  
                            (Angstroem and degrees)

        Definition                    OldVal   dE/dq     Step     FinalVal
    ----------------------------------------------------------------------------
     1. B(C   1,O   0)                1.3735  0.000029 -0.0001    1.3734   
     2. B(C   2,C   1)                1.5052  0.000059 -0.0003    1.5050   
     3. B(C   3,C   1)                1.4859  0.000025 -0.0001    1.4858   
     4. B(C   3,C   2)                1.4944 -0.000061  0.0003    1.4947   
     5. B(N   4,C   3)                1.4568  0.000021 -0.0001    1.4567   
     6. B(C   5,N   4)                1.4805  0.000065 -0.0002    1.4803   
     7. B(C   6,N   4)                1.4800 -0.000030  0.0001    1.4801   
     8. B(C   6,C   5)                1.4722  0.000049 -0.0002    1.4720   
     9. B(H   7,O   0)                0.9631 -0.000007 -0.0000    0.9631   
    10. B(H   8,C   1)                1.0909 -0.000011  0.0000    1.0909   
    11. B(H   9,C   2)                1.0844 -0.000001  0.0000    1.0845   
    12. B(H  10,C   2)                1.0826 -0.000000 -0.0000    1.0826   
    13. B(H  11,C   3)                1.0833  0.000001  0.0000    1.0833   
    14. B(H  12,N   4)                1.0152  0.000000  0.0000    1.0152   
    15. B(H  13,C   5)                1.0822 -0.000001  0.0000    1.0823   
    16. B(H  14,C   5)                1.0824  0.000001 -0.0000    1.0824   
    17. B(H  15,C   6)                1.0823 -0.000003  0.0001    1.0824   
    18. B(H  16,C   6)                1.0823  0.000000 -0.0000    1.0823   
    19. A(C   1,O   0,H   7)          109.83  0.000020   -0.01    109.82   
    20. A(O   0,C   1,H   8)          116.33  0.000003   -0.01    116.32   
    21. A(C   2,C   1,H   8)          115.88  0.000023   -0.02    115.86   
    22. A(O   0,C   1,C   2)          121.18 -0.000016    0.02    121.20   
    23. A(C   3,C   1,H   8)          117.05  0.000023   -0.01    117.04   
    24. A(O   0,C   1,C   3)          114.33 -0.000010    0.02    114.35   
    25. A(C   2,C   1,C   3)           59.95 -0.000042    0.02     59.97   
    26. A(H   9,C   2,H  10)          115.07  0.000013   -0.01    115.07   
    27. A(C   3,C   2,H  10)          115.97 -0.000009   -0.01    115.97   
    28. A(C   1,C   2,H  10)          118.67 -0.000011    0.02    118.69   
    29. A(C   3,C   2,H   9)          119.17  0.000000    0.00    119.17   
    30. A(C   1,C   2,H   9)          117.37 -0.000008    0.01    117.37   
    31. A(C   1,C   2,C   3)           59.39  0.000010   -0.00     59.38   
    32. A(C   2,C   3,N   4)          120.32 -0.000012   -0.01    120.31   
    33. A(C   2,C   3,H  11)          118.51 -0.000016   -0.01    118.50   
    34. A(N   4,C   3,H  11)          111.76  0.000034   -0.01    111.75   
    35. A(C   1,C   3,H  11)          116.98 -0.000024    0.03    117.01   
    36. A(C   1,C   3,C   2)           60.67  0.000032   -0.02     60.65   
    37. A(C   1,C   3,N   4)          119.96 -0.000025    0.02    119.98   
    38. A(C   5,N   4,H  12)          114.95 -0.000013    0.01    114.97   
    39. A(C   3,N   4,H  12)          114.15  0.000008   -0.00    114.15   
    40. A(C   6,N   4,H  12)          115.12 -0.000011    0.00    115.12   
    41. A(C   5,N   4,C   6)           59.64  0.000013   -0.01     59.64   
    42. A(C   3,N   4,C   6)          121.11 -0.000003    0.02    121.12   
    43. A(C   3,N   4,C   5)          121.27  0.000007   -0.03    121.25   
    44. A(N   4,C   5,H  14)          114.88 -0.000003    0.02    114.89   
    45. A(C   6,C   5,H  13)          119.38  0.000031   -0.02    119.36   
    46. A(N   4,C   5,H  13)          113.48  0.000036   -0.02    113.45   
    47. A(N   4,C   5,C   6)           60.16 -0.000036    0.02     60.18   
    48. A(C   6,C   5,H  14)          119.65  0.000002   -0.00    119.65   
    49. A(H  13,C   5,H  14)          116.28 -0.000027    0.01    116.29   
    50. A(N   4,C   6,C   5)           60.20  0.000023   -0.01     60.19   
    51. A(H  15,C   6,H  16)          116.28  0.000010   -0.00    116.28   
    52. A(C   5,C   6,H  16)          119.65 -0.000010   -0.00    119.64   
    53. A(N   4,C   6,H  16)          114.87 -0.000015    0.00    114.88   
    54. A(C   5,C   6,H  15)          119.41 -0.000004    0.01    119.41   
    55. A(N   4,C   6,H  15)          113.41 -0.000001    0.00    113.41   
    56. D(C   2,C   1,O   0,H   7)     81.39  0.000046   -0.10     81.29   
    57. D(C   3,C   1,O   0,H   7)    149.75 -0.000013   -0.06    149.69   
    58. D(H   8,C   1,O   0,H   7)    -68.92  0.000017   -0.08    -69.00   
    59. D(H   9,C   2,C   1,H   8)      1.70  0.000004   -0.00      1.70   
    60. D(H  10,C   2,C   1,C   3)   -104.86  0.000001    0.02   -104.84   
    61. D(H   9,C   2,C   1,C   3)    109.35  0.000007   -0.00    109.35   
    62. D(C   3,C   2,C   1,H   8)   -107.66 -0.000003    0.00   -107.66   
    63. D(H  10,C   2,C   1,O   0)     -2.96 -0.000025    0.05     -2.91   
    64. D(H  10,C   2,C   1,H   8)    147.48 -0.000002    0.02    147.50   
    65. D(C   3,C   2,C   1,O   0)    101.90 -0.000026    0.03    101.93   
    66. D(H   9,C   2,C   1,O   0)   -148.75 -0.000019    0.03   -148.72   
    67. D(H  11,C   3,C   2,C   1)   -106.68  0.000010   -0.04   -106.71   
    68. D(H  11,C   3,C   2,H   9)    146.98  0.000015   -0.04    146.93   
    69. D(N   4,C   3,C   1,O   0)    136.59  0.000016    0.01    136.60   
    70. D(C   2,C   3,C   1,O   0)   -113.26  0.000024   -0.02   -113.28   
    71. D(N   4,C   3,C   2,H  10)   -141.05 -0.000019    0.04   -141.01   
    72. D(N   4,C   3,C   2,C   1)    109.57 -0.000013    0.02    109.59   
    73. D(C   1,C   3,C   2,H  10)    109.38 -0.000006    0.02    109.40   
    74. D(C   1,C   3,C   2,H   9)   -106.35  0.000006   -0.00   -106.35   
    75. D(N   4,C   3,C   1,C   2)   -110.15 -0.000008    0.02   -110.12   
    76. D(H  11,C   3,C   1,H   8)   -145.12  0.000004   -0.04   -145.16   
    77. D(N   4,C   3,C   2,H   9)      3.22 -0.000007    0.02      3.24   
    78. D(H  11,C   3,C   1,C   2)    109.17  0.000002   -0.03    109.14   
    79. D(H  11,C   3,C   1,O   0)     -4.09  0.000026   -0.05     -4.14   
    80. D(H  11,C   3,C   2,H  10)      2.70  0.000003   -0.02      2.69   
    81. D(C   2,C   3,C   1,H   8)    105.70  0.000002   -0.01    105.70   
    82. D(N   4,C   3,C   1,H   8)     -4.44 -0.000006    0.02     -4.42   
    83. D(C   6,N   4,C   3,C   1)   -107.46  0.000015    0.06   -107.40   
    84. D(C   5,N   4,C   3,H  11)    -35.99 -0.000032    0.15    -35.85   
    85. D(C   5,N   4,C   3,C   1)   -178.55 -0.000003    0.08   -178.47   
    86. D(C   5,N   4,C   3,C   2)    109.99 -0.000027    0.09    110.08   
    87. D(H  12,N   4,C   3,H  11)    179.58 -0.000030    0.17    179.75   
    88. D(H  12,N   4,C   3,C   2)    -34.43 -0.000024    0.11    -34.32   
    89. D(H  12,N   4,C   3,C   1)     37.03 -0.000001    0.10     37.12   
    90. D(C   6,N   4,C   3,H  11)     35.10 -0.000014    0.13     35.23   
    91. D(C   6,N   4,C   3,C   2)   -178.92 -0.000009    0.08   -178.84   
    92. D(H  14,C   5,N   4,H  12)      5.60 -0.000003   -0.00      5.60   
    93. D(H  14,C   5,N   4,C   3)   -138.57 -0.000008    0.02   -138.54   
    94. D(H  13,C   5,N   4,H  12)    142.77 -0.000008    0.01    142.79   
    95. D(H  13,C   5,N   4,C   6)   -111.56 -0.000011    0.01   -111.55   
    96. D(H  13,C   5,N   4,C   3)     -1.39 -0.000012    0.04     -1.35   
    97. D(H  14,C   5,N   4,C   6)    111.27 -0.000007   -0.00    111.26   
    98. D(C   6,C   5,N   4,H  12)   -105.67  0.000003    0.00   -105.66   
    99. D(C   6,C   5,N   4,C   3)    110.17 -0.000001    0.03    110.20   
   100. D(H  16,C   6,C   5,H  14)      0.02  0.000017   -0.03     -0.01   
   101. D(H  16,C   6,C   5,N   4)    103.40 -0.000004    0.00    103.40   
   102. D(H  15,C   6,C   5,H  14)    154.92  0.000009   -0.02    154.89   
   103. D(H  15,C   6,C   5,H  13)      0.08  0.000003   -0.01      0.07   
   104. D(N   4,C   6,C   5,H  14)   -103.38  0.000020   -0.03   -103.41   
   105. D(N   4,C   6,C   5,H  13)    101.78  0.000014   -0.01    101.77   
   106. D(H  16,C   6,N   4,H  12)     -5.88 -0.000007    0.02     -5.86   
   107. D(H  16,C   6,N   4,C   5)   -111.27 -0.000001    0.01   -111.26   
   108. D(H  16,C   6,N   4,C   3)    138.29 -0.000017    0.05    138.34   
   109. D(H  15,C   6,C   5,N   4)   -101.70 -0.000011    0.01   -101.69   
   110. D(H  15,C   6,N   4,H  12)   -142.98 -0.000005    0.02   -142.96   
   111. D(H  15,C   6,N   4,C   5)    111.63  0.000001    0.01    111.64   
   112. D(H  15,C   6,N   4,C   3)      1.19 -0.000015    0.05      1.24   
   113. D(H  16,C   6,C   5,H  13)   -154.82  0.000011   -0.01   -154.83   
   114. D(C   5,C   6,N   4,H  12)    105.39 -0.000006    0.01    105.40   
   115. D(C   5,C   6,N   4,C   3)   -110.44 -0.000016    0.04   -110.40   
    ----------------------------------------------------------------------------
                 *******************************************************
                 *** FINAL ENERGY EVALUATION AT THE STATIONARY POINT ***
                 ***               (AFTER    2 CYCLES)               ***
                 *******************************************************


           ************************************************************
           *        Program running with 8 parallel MPI-processes     *
           *              working on a common directory               *
           ************************************************************
           ************************************************************
           *              Shut down parallel processing               *
           ************************************************************


           ************************************************************
           *        Program running with 8 parallel MPI-processes     *
           *              working on a common directory               *
           ************************************************************
------------
SCF SETTINGS
------------
Hamiltonian:
 Density Functional     Method          .... DFT(GTOs)
 Exchange Functional    Exchange        .... PBE
   PBE kappa parameter  XKappa          ....  0.804000
 Correlation Functional Correlation     .... PBE
 LDA part of GGA corr.  LDAOpt          .... PW91-LDA
 Gradients option       PostSCFGGA      .... off
 Hybrid DFT is turned on
   Fraction HF Exchange ScalHFX         ....  0.250000
   Scaling of DF-GGA-X  ScalDFX         ....  0.750000
   Scaling of DF-GGA-C  ScalDFC         ....  1.000000
   Scaling of DF-LDA-C  ScalLDAC        ....  1.000000
   Perturbative correction              ....  0.000000
   NL short-range parameter             ....  6.900000


General Settings:
 Integral files         IntName         .... 6475_+
 Hartree-Fock type      HFTyp           .... RHF
 Total Charge           Charge          ....    1
 Multiplicity           Mult            ....    1
 Number of Electrons    NEL             ....   54
 Basis Dimension        Dim             ....  277
 Nuclear Repulsion      ENuc            ....    316.6330957515 Eh

Convergence Acceleration:
 DIIS                   CNVDIIS         .... on
   Start iteration      DIISMaxIt       ....    12
   Startup error        DIISStart       ....  0.200000
   # of expansion vecs  DIISMaxEq       ....     5
   Bias factor          DIISBfac        ....   1.050
   Max. coefficient     DIISMaxC        ....  10.000
 Newton-Raphson         CNVNR           .... off
 SOSCF                  CNVSOSCF        .... on
   Start iteration      SOSCFMaxIt      ....   150
   Startup grad/error   SOSCFStart      ....  0.003300
 Level Shifting         CNVShift        .... on
   Level shift para.    LevelShift      ....    0.2500
   Turn off err/grad.   ShiftErr        ....    0.0010
 Zerner damping         CNVZerner       .... off
 Static damping         CNVDamp         .... on
   Fraction old density DampFac         ....    0.7000
   Max. Damping (<1)    DampMax         ....    0.9800
   Min. Damping (>=0)   DampMin         ....    0.0000
   Turn off err/grad.   DampErr         ....    0.1000
 Fernandez-Rico         CNVRico         .... off

SCF Procedure:
 Maximum # iterations   MaxIter         ....   125
 SCF integral mode      SCFMode         .... Direct
   Integral package                     .... LIBINT
 Reset frequeny         DirectResetFreq ....    20
 Integral Threshold     Thresh          ....  2.500e-11 Eh
 Primitive CutOff       TCut            ....  2.500e-12 Eh

Convergence Tolerance:
 Convergence Check Mode ConvCheckMode   .... Total+1el-Energy
 Energy Change          TolE            ....  1.000e-08 Eh
 1-El. energy change                    ....  1.000e-05 Eh
 Orbital Gradient       TolG            ....  1.000e-05
 Orbital Rotation angle TolX            ....  1.000e-05
 DIIS Error             TolErr          ....  5.000e-07


Diagonalization of the overlap matrix:
Smallest eigenvalue                        ... 1.336e-04
Time for diagonalization                   ...    0.265 sec
Threshold for overlap eigenvalues          ... 1.000e-08
Number of eigenvalues below threshold      ... 0
Time for construction of square roots      ...    0.017 sec
Total time needed                          ...    0.282 sec

-------------------
DFT GRID GENERATION
-------------------

General Integration Accuracy     IntAcc      ...  4.340
Radial Grid Type                 RadialGrid  ... Gauss-Chebyshev
Angular Grid (max. acc.)         AngularGrid ... Lebedev-194
Angular grid pruning method      GridPruning ... 3 (G Style)
Weight generation scheme         WeightScheme... Becke
Basis function cutoff            BFCut       ...    1.0000e-11
Integration weight cutoff        WCut        ...    1.0000e-14
Grids for H and He will be reduced by one unit

# of grid points (after initial pruning)     ...  38362 (   0.0 sec)
# of grid points (after weights+screening)   ...  35287 (   0.1 sec)
nearest neighbour list constructed           ...    0.0 sec
Grid point re-assignment to atoms done       ...    0.0 sec
Grid point division into batches done        ...    0.1 sec
Reduced shell lists constructed in    0.2 sec

Total number of grid points                  ...    35287
Total number of batches                      ...      561
Average number of points per batch           ...       62
Average number of grid points per atom       ...     2076
Average number of shells per batch           ...    82.49 (70.50%)
Average number of basis functions per batch  ...   199.04 (71.86%)
Average number of large shells per batch     ...    65.29 (79.15%)
Average number of large basis fcns per batch ...   157.76 (79.26%)
Maximum spatial batch extension              ...  16.60, 14.34, 11.47 au
Average spatial batch extension              ...   0.25,  0.24,  0.23 au

Time for grid setup =    0.609 sec

--------------
SCF ITERATIONS
--------------
ITER       Energy         Delta-E        Max-DP      RMS-DP      [F,P]     Damp
               ***  Starting incremental Fock matrix formation  ***
                      *** Initiating the SOSCF procedure ***
                      *** Re-Reading the Fockian *** 
                      *** Removing any level shift *** 
ITER      Energy       Delta-E        Grad      Rot      Max-DP    RMS-DP
  0   -325.95015868 -325.9501586778  0.000132  0.000132  0.000682  0.000009
               *** Restarting incremental Fock matrix formation ***
  1   -325.95016067  -0.0000019887  0.000030  0.000055  0.000262  0.000004
  2   -325.95016084  -0.0000001713  0.000014  0.000023  0.000125  0.000002
  3   -325.95016083   0.0000000045  0.000018  0.000013  0.000069  0.000001
                  ***Gradient check signals convergence***
              ***Rediagonalizing the Fockian in SOSCF/NRSCF***

               *****************************************************
               *                     SUCCESS                       *
               *           SCF CONVERGED AFTER   4 CYCLES          *
               *****************************************************

Setting up the final grid:

General Integration Accuracy     IntAcc      ...  5.010
Radial Grid Type                 RadialGrid  ... Gauss-Chebyshev
Angular Grid (max. acc.)         AngularGrid ... Lebedev-434
Angular grid pruning method      GridPruning ... 3 (G Style)
Weight generation scheme         WeightScheme... Becke
Basis function cutoff            BFCut       ...    1.0000e-11
Integration weight cutoff        WCut        ...    1.0000e-14
Grids for H and He will be reduced by one unit

# of grid points (after initial pruning)     ... 141842 (   0.0 sec)
# of grid points (after weights+screening)   ... 128976 (   1.9 sec)
nearest neighbour list constructed           ...    0.0 sec
Grid point re-assignment to atoms done       ...    0.0 sec
Grid point division into batches done        ...    1.0 sec
Reduced shell lists constructed in    1.3 sec

Total number of grid points                  ...   128976
Total number of batches                      ...     2023
Average number of points per batch           ...       63
Average number of grid points per atom       ...     7587
Average number of shells per batch           ...    80.50 (68.80%)
Average number of basis functions per batch  ...   194.27 (70.13%)
Average number of large shells per batch     ...    63.30 (78.64%)
Average number of large basis fcns per batch ...   152.44 (78.47%)
Maximum spatial batch extension              ...  14.45, 13.38,  9.37 au
Average spatial batch extension              ...   0.16,  0.16,  0.15 au

Final grid set up in    4.0 sec
Final integration                            ... done (   0.9 sec)
Change in XC energy                          ...     0.000311834
Integrated number of electrons               ...    53.999955224
Previous integrated no of electrons          ...    53.999434783
Total Energy       :         -325.94984902 Eh           -8869.54631 eV
  Last Energy change         ...   -1.6839e-08  Tolerance :   1.0000e-08
  Last MAX-Density change    ...    5.7941e-06  Tolerance :   1.0000e-07
             **** THE GBW FILE WAS UPDATED (6475_+.gbw) ****
             **** DENSITY FILE WAS UPDATED (6475_+.scfp.tmp) ****
             **** ENERGY FILE WAS UPDATED (6475_+.en.tmp) ****
Total SCF time: 0 days 0 hours 0 min 37 sec 
           ************************************************************
           *              Shut down parallel processing               *
           ************************************************************

-------------------------   --------------------
FINAL SINGLE POINT ENERGY      -325.949849015763
-------------------------   --------------------

                                *** OPTIMIZATION RUN DONE ***

                            ***************************************
                            *     ORCA property calculations      *
                            ***************************************

                                    ---------------------
                                    Active property flags
                                    ---------------------




           ************************************************************
           *        Program running with 8 parallel MPI-processes     *
           *              working on a common directory               *
           ************************************************************

-------------------------------------------------------------------------------
                               ORCA SCF HESSIAN
-------------------------------------------------------------------------------

Hessian of the Kohn-Sham DFT energy:
Kohn-Sham wavefunction type                      ... RKS
Hartree-Fock exchange scaling                    ...    0.250
Number of operators                              ...    1
Number of atoms                                  ...   17
Basis set dimensions                             ...  277
Integral neglect threshold                       ... 2.5e-11
Integral primitive cutoff                        ... 2.5e-12

[...]
     49       0.064451  -0.133289  -0.163956   0.268453   0.093357   0.159825
     50      -0.183015   0.112973   0.102654  -0.028578  -0.067137  -0.073261
                 36         37         38         39         40         41    
      0      -0.008316   0.002182  -0.000046  -0.002405   0.004884  -0.000058
      1       0.012220  -0.008340  -0.000015   0.003486  -0.007398  -0.000266
      2      -0.026540   0.009548   0.000203  -0.012901   0.029930  -0.000563
      3       0.015682  -0.009264   0.000266   0.019079  -0.061269   0.071626
      4       0.018437   0.004081  -0.000596   0.002860  -0.002989  -0.045811
      5       0.115793  -0.052762  -0.000814   0.074594  -0.172405  -0.006809
      6       0.048664   0.041133  -0.000444  -0.032894   0.076276  -0.001675
      7       0.035938   0.042530   0.000310  -0.029297   0.073978   0.003577
      8      -0.008288   0.008873   0.000139  -0.004272   0.016816   0.003218
      9       0.011899   0.012876   0.002341   0.011379  -0.021641  -0.000309
     10      -0.006593   0.026636   0.001799   0.021873  -0.112643   0.003109
     11      -0.016869  -0.017287   0.000545  -0.047729   0.143345  -0.001489
     12       0.013568  -0.037677  -0.016215   0.008523   0.026348   0.000069
     13       0.009696  -0.024263  -0.006924   0.020761   0.055316   0.000007
     14      -0.035218   0.077250  -0.008500  -0.026939  -0.079876   0.000148
     15      -0.003851   0.012720  -0.038858   0.066984   0.039886   0.000133
     16       0.010108  -0.020043   0.000211  -0.004245   0.008453  -0.000020
     17       0.005660  -0.002472  -0.039048   0.077279   0.043122   0.000116
     18      -0.007145   0.009124  -0.042684  -0.080167  -0.053103  -0.000332
     19       0.007252  -0.021188  -0.032372  -0.061406  -0.027809  -0.000196
     20       0.001409  -0.004754  -0.010865  -0.013035  -0.011274  -0.000064
     21       0.013963   0.000803  -0.000095   0.003509  -0.011561  -0.001263
     22      -0.175151   0.081662   0.001545  -0.071958   0.164168   0.000061
     23      -0.172904   0.079868   0.001477  -0.071305   0.162629  -0.004353
     24      -0.131668   0.027419   0.001301  -0.027827   0.062599  -0.829492
     25      -0.112046   0.024424   0.000022  -0.029991   0.108004   0.537486
     26      -0.425517   0.173681   0.003452  -0.174461   0.337684   0.104728
     27      -0.545833  -0.383580  -0.000597   0.122913  -0.217735   0.008251
     28      -0.106709  -0.089892   0.000573   0.031949  -0.012236  -0.057669
     29       0.086725   0.136138  -0.000274  -0.077367   0.109430  -0.031486
     30      -0.095757  -0.110838  -0.001306   0.032279  -0.042490  -0.010048
     31      -0.500513  -0.372663  -0.001308   0.109236  -0.206357   0.001726
     32      -0.118650  -0.170419  -0.001208   0.095126  -0.161083  -0.001130
     33       0.027107  -0.099181  -0.017573  -0.045117   0.187142   0.003213
     34      -0.004503  -0.053994  -0.007327  -0.035891   0.069033  -0.011743
     35       0.015551   0.147166  -0.002856   0.120300  -0.398956  -0.007232
     36      -0.093841   0.234869   0.011398  -0.042931  -0.198733   0.000704
     37      -0.115325   0.256446   0.006593  -0.035665  -0.180278  -0.000544
     38       0.268450  -0.538694  -0.004305   0.091132   0.441963   0.004722
     39       0.015838  -0.040327   0.115985  -0.080198  -0.027804  -0.001971
     40       0.039742  -0.087055   0.126939  -0.119853  -0.050606   0.001549
     41       0.031739  -0.114468   0.467683  -0.445389  -0.167869  -0.000059
     42       0.047938  -0.131905   0.433745  -0.407310  -0.162258  -0.000011
     43      -0.060204   0.140720  -0.192465   0.180452   0.039088  -0.000292
     44       0.056678  -0.121923   0.138502  -0.090327   0.004489   0.000443
     45      -0.047544   0.135745   0.479935   0.443669   0.176625  -0.000285
     46       0.010413  -0.016619   0.104059   0.082966   0.030582   0.003223
     47      -0.007361   0.004051  -0.107011  -0.124866  -0.051788   0.002276
     48      -0.024217   0.062468   0.149113   0.106863   0.027101   0.003412
     49      -0.080611   0.205001   0.423019   0.381598   0.114343  -0.000899
     50       0.011711  -0.005332   0.215746   0.221536   0.124802  -0.001106
                 42         43         44         45         46         47    
      0       0.000096  -0.000004  -0.000003  -0.000030  -0.000023   0.000002
      1       0.000168   0.000013   0.000033  -0.000054  -0.000326  -0.000007
      2       0.000158  -0.000005   0.000024   0.000091  -0.000147   0.000016
      3       0.005799   0.000259   0.000417  -0.000711  -0.002029  -0.000120
      4      -0.002475  -0.000163  -0.000280  -0.000491   0.001839   0.000066
      5       0.001733  -0.000056  -0.000155  -0.001688   0.000728   0.000037
      6      -0.041560   0.000015  -0.000655  -0.003935  -0.065245   0.000471
      7      -0.050636  -0.000099  -0.000382   0.005645   0.052212  -0.000406
      8      -0.012923  -0.000049   0.000021   0.004911   0.053812  -0.000429
      9       0.000764  -0.000145   0.000979   0.037590  -0.003092   0.000315
     10       0.002655  -0.000220  -0.002313  -0.076884   0.005493   0.000242
     11      -0.002073  -0.000161  -0.000102  -0.012684   0.000823   0.000241
     12       0.000193  -0.000296  -0.000707  -0.001143   0.000462   0.000219
     13       0.000210  -0.000130  -0.001905   0.001818   0.000147   0.000084
     14      -0.000151  -0.000178   0.002389   0.000872  -0.000237   0.000098
     15       0.000381   0.030612  -0.035239   0.000369   0.000279   0.042300
     16       0.000047   0.001085  -0.001362   0.000654  -0.000199  -0.041106
     17       0.000413   0.030817  -0.034459   0.001552  -0.000046  -0.042139
     18      -0.000536   0.035106   0.038408  -0.001916  -0.000275  -0.042516
     19      -0.000385   0.025173   0.027666  -0.000117   0.000389   0.041821
     20      -0.000180   0.009560   0.011154   0.000357   0.000316   0.043226
     21       0.000094  -0.000019  -0.000089  -0.000984  -0.000342  -0.000008
     22      -0.000260  -0.000035  -0.000179   0.000826   0.000206   0.000054
     23      -0.001890  -0.000075   0.000105   0.000829  -0.001255  -0.000004
     24      -0.043823  -0.002261  -0.004732  -0.009750   0.032630   0.000732
     25       0.029186   0.001496   0.003104   0.009336  -0.017654  -0.000328
     26       0.006924   0.000343   0.000666  -0.002585  -0.002891  -0.000217
     27      -0.088468  -0.000050  -0.000873   0.006200   0.057852  -0.000464
     28       0.664511   0.001575   0.006242  -0.033436  -0.511476   0.003575
     29       0.409393   0.000963   0.003880  -0.027147  -0.312448   0.002388
     30       0.547012  -0.000624   0.008747   0.054783   0.709301  -0.004732
     31      -0.098374  -0.000073  -0.001531  -0.009380  -0.109727   0.000845
     32      -0.258065   0.000356  -0.004162  -0.023096  -0.324059   0.002098
     33       0.001370  -0.001143  -0.011004  -0.434017   0.030799   0.000656
     34       0.001036   0.001537   0.024042   0.879583  -0.069269  -0.001106
     35      -0.001678   0.000098   0.002624   0.152349  -0.011494  -0.000189
     36      -0.002211  -0.000529   0.001999   0.006641   0.001097  -0.006442
     37      -0.000702  -0.000228  -0.006927  -0.019066   0.002324  -0.002494
     38       0.002073  -0.000235   0.001091   0.001990  -0.001644  -0.003894
     39      -0.004843  -0.423496   0.431133  -0.004731  -0.003091  -0.434631
     40       0.002794   0.231965  -0.239426   0.003365   0.001573   0.238177
     41       0.000686   0.072367  -0.076244  -0.000940   0.000752   0.070840
     42       0.000606   0.060114  -0.065213   0.001930   0.000055  -0.057255
     43      -0.002774  -0.249489   0.251377  -0.009397   0.000228   0.239256
     44      -0.004420  -0.431456   0.434170  -0.018190   0.000501   0.418854
     45      -0.000631   0.045404   0.048527   0.000427   0.000273   0.043049
     46       0.005543  -0.388599  -0.385366   0.005399  -0.004276  -0.394135
     47       0.004091  -0.310706  -0.306845   0.002389  -0.002916  -0.312468
     48       0.005555  -0.457835  -0.445203   0.021744   0.003771   0.450653
     49      -0.001297   0.096337   0.096634  -0.003329  -0.000554  -0.092237
     50      -0.002255   0.192950   0.191636  -0.009186  -0.001796  -0.190185
                  48         49         50    
      0      -0.000001   0.000033  -0.007629
      1      -0.000027  -0.000021  -0.037941
      2      -0.000002   0.000032   0.049126
      3      -0.000158  -0.000136  -0.000180
      4       0.000088   0.000194  -0.001578
      5       0.000059  -0.000132   0.000161
      6      -0.000252   0.000020   0.000277
      7       0.000247   0.000286  -0.000253
      8       0.000273   0.000015  -0.000190
      9       0.000645   0.000531  -0.000120
     10      -0.001305  -0.001597   0.000255
     11      -0.000224   0.000122  -0.000329
     12      -0.001627   0.033611   0.000007
     13       0.001934  -0.063986   0.000012
     14       0.001447  -0.014488  -0.000054
     15       0.042054  -0.000646  -0.000007
     16      -0.041148  -0.000723  -0.000010
     17      -0.042376  -0.001177  -0.000022
     18       0.041435   0.001454  -0.000000
     19      -0.040356   0.000183  -0.000026
     20      -0.041769   0.000170   0.000015
     21      -0.000011  -0.000273   0.121143
     22       0.000097  -0.000338   0.622039
     23       0.000025   0.000744  -0.771003
     24       0.001064   0.000298   0.002049
     25      -0.000427   0.001226  -0.003023
     26      -0.000320  -0.000299  -0.003480
     27       0.000263  -0.000425  -0.000302
     28      -0.001940   0.000184   0.000242
     29      -0.001631  -0.001371  -0.001421
     30       0.002442   0.000011  -0.000711
     31      -0.000508  -0.000566   0.001005
     32      -0.000830   0.000418   0.001276
     33      -0.007747  -0.010171  -0.000517
     34       0.013824   0.016805   0.000411
     35       0.003977   0.006434  -0.000456
     36       0.010672  -0.454243  -0.000354
     37      -0.012937   0.865571   0.000615
     38      -0.009427   0.195210   0.000457
     39      -0.442268  -0.005823   0.000146
     40       0.233812   0.007148  -0.000124
     41       0.071358  -0.003859   0.000026
     42      -0.052874  -0.003325   0.000012
     43       0.249694   0.005980   0.000135
     44       0.426642   0.009498  -0.000011
     45      -0.037553   0.001298  -0.000004
     46       0.381848   0.009875  -0.000119
     47       0.310000   0.000318  -0.000031
     48      -0.448992  -0.009504  -0.000113
     49       0.092816   0.003341   0.000048
     50       0.181483   0.005666   0.000028


-----------
IR SPECTRUM
-----------

 Mode    freq (cm**-1)   T**2         TX         TY         TZ
-------------------------------------------------------------------
   6:        52.10    0.213010  (  0.109928  -0.420291   0.155825)
   7:       157.96    1.983797  ( -0.421179  -0.223572  -1.325300)
   8:       202.98    0.424373  ( -0.089545   0.104281   0.636773)
   9:       314.47  119.075365  ( 10.510895  -0.314610   2.915041)
  10:       361.91    4.119875  (  1.382326   0.465848  -1.411395)
  11:       384.05   24.069026  ( -4.697596   0.932969   1.063571)
  12:       416.46   10.340545  (  1.203942   0.854912   2.856605)
  13:       474.08    1.283166  ( -1.058293  -0.272995   0.297751)
  14:       760.85    1.013233  ( -0.674576   0.000392  -0.747115)
  15:       813.32    2.293240  ( -0.329098  -0.540776  -1.375680)
  16:       832.75   13.310913  (  0.633648  -2.714314   2.354125)
  17:       856.66    1.694966  (  0.387847   0.226148   1.222046)
  18:       915.91   20.423984  ( -4.476881  -0.173713   0.592742)
  19:       924.42   36.382369  ( -1.081845  -2.865601   5.196182)
  20:       964.28   22.058174  ( -0.653361  -4.613093   0.592169)
  21:      1028.33    4.307907  (  1.709611   0.948441   0.696848)
  22:      1050.73   15.144623  ( -1.833519  -0.803870   3.337158)
  23:      1070.90   25.357344  ( -0.813770   2.552596  -4.263728)
  24:      1091.27    0.434175  ( -0.532691   0.017641   0.387433)
  25:      1107.59   18.800857  ( -0.542358  -2.953368  -3.127990)
  26:      1147.68    8.622666  ( -2.224771  -1.059065  -1.597323)
  27:      1153.49    0.907294  (  0.594915  -0.426421  -0.609537)
  28:      1176.14    1.308007  (  0.862392   0.304880   0.686539)
  29:      1212.47    9.654699  ( -1.935841  -1.269639  -2.072496)
  30:      1218.51    6.264374  ( -0.684207   1.198912   2.087785)
  31:      1235.39   81.070504  (  0.783312   2.728481   8.544724)
  32:      1251.05   10.363882  ( -1.183835  -0.964184  -2.834213)
  33:      1273.82   15.311277  ( -0.102446   1.852429  -3.445183)
  34:      1290.72   61.152542  (  0.571908   5.692571   5.331050)
  35:      1350.64   12.242127  (  1.147956  -3.194510  -0.848191)
  36:      1426.75   17.214271  ( -1.712026  -1.918839   3.255963)
  37:      1462.00   25.470539  (  0.199808   0.337279  -5.031586)
  38:      1478.22   16.277995  (  3.309487   1.361263   1.863399)
  39:      1513.21    7.705787  (  0.334435   1.513913   2.302609)
  40:      1527.26   17.653223  ( -3.084547  -2.846975  -0.183102)
  41:      3106.97   17.341773  (  2.452066  -1.826082  -2.827467)
  42:      3155.09    2.786874  (  1.422664   0.087387  -0.869060)
  43:      3173.07    4.408835  ( -1.673489  -0.740884  -1.029253)
  44:      3174.56    2.216234  ( -0.245660  -1.076811   0.998180)
  45:      3205.64    1.983492  ( -0.879300   1.061908   0.287532)
  46:      3251.00    1.492687  (  1.144980  -0.252194  -0.343665)
  47:      3271.26    0.123049  ( -0.202402  -0.163072  -0.235564)
  48:      3281.68   12.287744  ( -1.999630   2.080548   1.990112)
  49:      3543.12   75.079112  ( -3.578546   7.840578   0.893564)
  50:      3837.66  104.744607  (  0.663035   3.645694  -9.540121)

The first frequency considered to be a vibration is 6
The total number of vibrations considered is 45


--------------------------
THERMOCHEMISTRY AT 298.15K
--------------------------

Temperature         ... 298.15 K
Pressure            ... 1.00 atm
Total Mass          ... 100.14 AMU

Throughout the following assumptions are being made:
  (1) The electronic state is orbitally nondegenerate
  (2) There are no thermally accessible electronically excited states
  (3) Hindered rotations indicated by low frequency modes) are not
      treated as such but are treated as vibrations and this may
      case some error
  (4) All equations used are the standard statistical mechanics
      equations for an ideal gas
  (5) All vibrations are strinctly harmonic


------------
INNER ENERGY
------------

The inner energy is: U= E(el) + E(ZPE) + E(vib) + E(rot) + E(trans)
    E(el)   - is the total energy from the electronic structure calculation
              = E(kin-el) + E(nuc-el) + E(el-el) + E(nuc-nuc)
    E(ZPE)  - the the zero temperature vibrational energy from the frequency calculation
    E(vib)  - the the finite temperature correction to E(ZPE) due to population
              of excietd vibrational states
    E(rot)  - is the rotational thermal energy
    E(trans)- is the translational thermal energy

Summary of contributions to the inner energy U:
Electronic energy                ...   -325.94984902 Eh
Zero point energy                ...      0.15149454 Eh      95.06 kcal/mol
Thermal vibrational correction   ...      0.00439061 Eh       2.76 kcal/mol
Thermal rotational correction    ...      0.00141627 Eh       0.89 kcal/mol
Thermal translational correction ...      0.00141627 Eh       0.89 kcal/mol
-----------------------------------------------------------------------
Total thermal energy                   -325.79113132 Eh


Summary of corrections to the electronic energy:
(perhaps to be used in another calculation)
Total thermal correction                  0.00722316 Eh       4.53 kcal/mol
Non-thermal (ZPE) correction              0.15149454 Eh      95.06 kcal/mol
-----------------------------------------------------------------------
Total correction                          0.15871770 Eh      99.60 kcal/mol


--------
ENTHALPY
--------

The enthalpy is H = U + kB*T
                kB is Boltzmann's constant
Total free energy                 ...   -325.79113132 Eh 
Thermal Enthalpy correction       ...      0.00094421 Eh       0.59 kcal/mol
-----------------------------------------------------------------------
Total Enthalpy                    ...   -325.79018711 Eh


-------
ENTROPY
-------

The entropy contributions are T*S = T*(S(el)+S(vib)+S(rot)+S(trans)
     S(el)   - electronic entropy
     S(vib)  - vibrational entropy
     S(rot)  - rotational entropy
     S(trans)- translational entropy
The entropies will be listed as mutliplied by the temperature to get
units of energy

Electronic entropy                ...      0.00000000 Eh      0.00 kcal/mol
Vibrational entropy               ...      0.00782480 Eh      4.91 kcal/mol
Rotational entropy                ...      0.01205065 Eh      7.56 kcal/mol
Translational entropy             ...      0.01887324 Eh     11.84 kcal/mol
-----------------------------------------------------------------------
Final entropy term                ...      0.03874869 Eh     24.32 kcal/mol


CAUTION: The rotational entropy is not quite correctly treated here
         because it includes a symmetry number that is not yet correctly
         implemented in ORCA!
For a nonlinear molecule the correct rotational entropy is:
    S(rot) = R*(ln(qrot/sn)+1.5)
    R    = 8.31441 J/mol/K = 1.987191683e-3 kcal/mol/K
    qrot = 233675.7371352
    sn is the rotational symmetry number. We have assumed 3 here
       if it is different for your molecule then you should correct
       the printed rotational entropy by manually evaluating the equation
       as given above

For convenience we print out the resulting values for sn=1 - 12:
 sn= 1  qrot/sn=  233675.7371 T*S(rot)=     8.21 kcal/mol T*S(tot)=    24.97 kcal/mol
 sn= 2  qrot/sn=  116837.8686 T*S(rot)=     7.80 kcal/mol T*S(tot)=    24.56 kcal/mol
 sn= 3  qrot/sn=   77891.9124 T*S(rot)=     7.56 kcal/mol T*S(tot)=    24.32 kcal/mol
 sn= 4  qrot/sn=   58418.9343 T*S(rot)=     7.39 kcal/mol T*S(tot)=    24.14 kcal/mol
 sn= 5  qrot/sn=   46735.1474 T*S(rot)=     7.26 kcal/mol T*S(tot)=    24.01 kcal/mol
 sn= 6  qrot/sn=   38945.9562 T*S(rot)=     7.15 kcal/mol T*S(tot)=    23.90 kcal/mol
 sn= 7  qrot/sn=   33382.2482 T*S(rot)=     7.06 kcal/mol T*S(tot)=    23.81 kcal/mol
 sn= 8  qrot/sn=   29209.4671 T*S(rot)=     6.98 kcal/mol T*S(tot)=    23.73 kcal/mol
 sn= 9  qrot/sn=   25963.9708 T*S(rot)=     6.91 kcal/mol T*S(tot)=    23.66 kcal/mol
 sn=10  qrot/sn=   23367.5737 T*S(rot)=     6.85 kcal/mol T*S(tot)=    23.60 kcal/mol
 sn=11  qrot/sn=   21243.2488 T*S(rot)=     6.79 kcal/mol T*S(tot)=    23.55 kcal/mol
 sn=12  qrot/sn=   19472.9781 T*S(rot)=     6.74 kcal/mol T*S(tot)=    23.49 kcal/mol


-------------------
GIBBS FREE ENTHALPY
-------------------

The Gibbs free enthalpy is G = H - T*S

Total enthalpy                    ...   -325.79018711 Eh 
Total entropy correction          ...     -0.03874869 Eh    -24.32 kcal/mol
-----------------------------------------------------------------------
Final Gibbs free enthalpy         ...   -325.82893580 Eh

For completeness - the Gibbs free enthalpy minus the electronic energy
G-E(el)                           ...      0.12091322 Eh     75.87 kcal/mol


Timings for individual modules:

Sum of individual times         ...     1888.888 sec (=  31.481 min)
GTO integral calculation        ...        6.415 sec (=   0.107 min)   0.3 %
SCF iterations                  ...      151.550 sec (=   2.526 min)   8.0 %
SCF Gradient evaluation         ...       68.353 sec (=   1.139 min)   3.6 %
Geometry relaxation             ...        0.171 sec (=   0.003 min)   0.0 %
Analytical frequency calculation...     1662.399 sec (=  27.707 min)  88.0 %
                             ****ORCA TERMINATED NORMALLY****
TOTAL RUN TIME: 0 days 0 hours 31 minutes 30 seconds 664 msec
