
                                 *****************
                                 * O   R   C   A *
                                 *****************

           --- An Ab Initio, DFT and Semiempirical electronic structure package ---

                  #######################################################
                  #                        -***-                        #
                  #  Department of molecular theory and spectroscopy    #
                  #              Directorship: Frank Neese              #
                  # Max Planck Institute for Chemical Energy Conversion #
                  #                  D-45470 Muelheim/Ruhr              #
                  #                       Germany                       #
                  #                                                     #
                  #                  All rights reserved                #
                  #                        -***-                        #
                  #######################################################


                         Program Version 3.0.3 - RELEASE   -


 With contributions from (in alphabetic order):
   Ute Becker             : Parallelization
   Dmytro Bykov           : SCF Hessian
   Dmitry Ganyushin       : Spin-Orbit,Spin-Spin,Magnetic field MRCI
   Andreas Hansen         : Spin unrestricted coupled pair/coupled cluster methods
   Dimitrios Liakos       : Extrapolation schemes; parallel MDCI
   Robert Izsak           : Overlap fitted RIJCOSX, COSX-SCS-MP3
   Christian Kollmar      : KDIIS, OOCD, Brueckner-CCSD(T), CCSD density
   Simone Kossmann        : Meta GGA functionals, TD-DFT gradient, OOMP2, MP2 Hessian
   Taras Petrenko         : DFT Hessian,TD-DFT gradient, ASA and ECA modules, normal mode analysis, Resonance Raman, ABS, FL, XAS/XES, NRVS
   Christoph Reimann      : Effective Core Potentials
   Michael Roemelt        : Restricted open shell CIS
   Christoph Riplinger    : Improved optimizer, TS searches, QM/MM, DLPNO-CCSD
   Barbara Sandhoefer     : DKH picture change effects
   Igor Schapiro          : Molecular dynamics
   Kantharuban Sivalingam : CASSCF convergence, NEVPT2
   Boris Wezisla          : Elementary symmetry handling
   Frank Wennmohs         : Technical directorship


 We gratefully acknowledge several colleagues who have allowed us to
 interface, adapt or use parts of their codes:
   Stefan Grimme, W. Hujo, H. Kruse, T. Risthaus : VdW corrections, initial TS optimization,
                                                   DFT functionals, gCP
   Ed Valeev                                     : LibInt (2-el integral package), F12 methods
   Garnet Chan, S. Sharma, R. Olivares           : DMRG
   Ulf Ekstrom                                   : XCFun DFT Library
   Mihaly Kallay                                 : mrcc  (arbitrary order and MRCC methods)
   Andreas Klamt, Michael Diedenhofen            : otool_cosmo (COSMO solvation model)
   Frank Weinhold                                : gennbo (NPA and NBO analysis)
   Christopher J. Cramer and Donald G. Truhlar   : smd solvation model


 Your calculation uses the libint2 library for the computation of 2-el integrals
 For citations please refer to: http://libint.valeyev.net

 This ORCA versions uses:
   CBLAS   interface :  Fast vector & matrix operations
   LAPACKE interface :  Fast linear algebra routines
   SCALAPACK package :  Parallel linear algebra routines


Your calculation utilizes the basis: Ahlrichs-TZV
Cite in your paper:
H - Kr: A. Schaefer, H. Horn and R. Ahlrichs, J. Chem. Phys. 97, 2571 (1992).

The def2-TZV basis will be loaded
Cite in your paper:
 	F. Weigend, R. Ahlrichs, Phys. Chem. Chem. Phys. 2005, 7, 3297.

================================================================================
                                        WARNINGS
                       Please study these warnings very carefully!
================================================================================
Now building the actual basis set
WARNING: Geometry optimizations can change the point-group symmetry!

WARNING: Geometry Optimization
  ===> : Switching off AutoStart
         For restart on a previous wavefunction, please use MOREAD


INFO   : the flag for use of LIBINT has been found!

================================================================================
                                       INPUT FILE
================================================================================
NAME = 6549_+.inp
|  1> ! NORI PBE0 def2-TZVP UseSym TightOPT Freq TightSCF Grid3 FinalGrid5 XYZFile
|  2> % pal
|  3>     nprocs 8
|  4> end
|  5> %method
|  6>     SymThresh 5.0e-2
|  7> end
|  8> % geom 
|  9>     MaxIter 10
| 10> end 
| 11> % maxcore 2000
| 12> % output
| 13>     printlevel mini
| 14>     print[ P_Basis ] 0
| 15>     print[ P_SCFInfo ] 1
| 16>     print[ P_SCFIterInfo ] 1
| 17>     print[ P_OrbEn ] 0
| 18>     print[ P_Cartesian ] 0
| 19> end
| 20> % elprop
| 21>     Dipole false
| 22> end
| 23> *xyz 1 1
| 24>  O        1.1801635731    -0.1173696176     0.5789967220 
| 25>  C        2.2956752158    -0.1187894101     0.2290885127 
| 26>  C        3.3222029270     0.9483463986    -0.1488851705 
| 27>  N        4.3106386910    -0.1575350511    -0.4836055550 
| 28>  C        3.3425651323    -1.2576313383    -0.0312258835 
| 29>  C        3.0622907803    -2.2287408022    -1.0551147095 
| 30>  N        2.8361575985    -2.9624959908    -1.9102677376 
| 31>  H        3.0768906815     1.5620572721    -1.0164413994 
| 32>  H        3.6706447211     1.5719800143     0.6756370395 
| 33>  H        5.1858289783    -0.1292383952     0.0407020787 
| 34>  H        4.5370119361    -0.2206886699    -1.4782233673 
| 35>  H        3.6962597651    -1.7204744099     0.8946694700 
| 36> *
| 37> 
| 38>                          ****END OF INPUT****
================================================================================

The point group is C1 - hence turning off symmetry
If this is a round-off problem, please increase the symmetry
        detection tolerance (%method SymThresh)


                       *****************************
                       * Geometry Optimization Run *
                       *****************************

Geometry optimization settings:
Update method            Update   .... BFGS
Choice of coordinates    CoordSys .... Redundant Internals
Initial Hessian          InHess   .... Almoef's Model

Convergence Tolerances:
Energy Change            TolE     ....  1.0000e-06 Eh
Max. Gradient            TolMAXG  ....  1.0000e-04 Eh/bohr
RMS Gradient             TolRMSG  ....  3.0000e-05 Eh/bohr
Max. Displacement        TolMAXD  ....  1.0000e-03 bohr
RMS Displacement         TolRMSD  ....  6.0000e-04 bohr

------------------------------------------------------------------------------
                        ORCA OPTIMIZATION COORDINATE SETUP
------------------------------------------------------------------------------

The optimization will be done in new redundant internal coordinates
Making redundant internal coordinates   ...  (new redundants) done
Evaluating the initial hessian          ...  (Almloef) done
Evaluating the coordinates              ...  done
Calculating the B-matrix                .... done
Calculating the G-matrix                .... done
Diagonalizing the G-matrix              .... done
The first mode is                       ....   35
The number of degrees of freedom        ....   30

    -----------------------------------------------------------------
                    Redundant Internal Coordinates


    -----------------------------------------------------------------
         Definition                    Initial Value    Approx d2E/dq
    -----------------------------------------------------------------
      1. B(C   1,O   0)                  1.1691         1.259798   
      2. B(C   2,C   1)                  1.5282         0.376050   
      3. B(N   3,C   2)                  1.5205         0.346434   
      4. B(C   4,N   3)                  1.5336         0.330157   
      5. B(C   4,C   1)                  1.5687         0.324111   
      6. B(C   5,C   4)                  1.4387         0.522380   
      7. B(N   6,C   5)                  1.1493         1.355021   
      8. B(H   7,C   2)                  1.0906         0.359268   
      9. B(H   8,C   2)                  1.0909         0.358848   
     10. B(H   9,N   3)                  1.0206         0.416157   
     11. B(H  10,N   3)                  1.0220         0.414037   
     12. B(H  11,C   4)                  1.0939         0.354984   
     13. A(C   2,C   1,C   4)           91.0098         0.355069   
     14. A(O   0,C   1,C   4)          133.4194         0.435934   
     15. A(O   0,C   1,C   2)          135.5701         0.447804   
     16. A(C   1,C   2,H   7)          116.0142         0.324547   
     17. A(N   3,C   2,H   7)          112.3565         0.318312   
     18. A(N   3,C   2,H   8)          111.9937         0.318251   
     19. A(C   1,C   2,H   8)          115.2640         0.324485   
     20. A(H   7,C   2,H   8)          110.5711         0.290575   
     21. A(C   1,C   2,N   3)           89.0395         0.356888   
     22. A(C   2,N   3,C   4)           92.6613         0.346972   
     23. A(H   9,N   3,H  10)          108.1632         0.299265   
     24. A(C   2,N   3,H  10)          113.7761         0.323036   
     25. A(C   4,N   3,H   9)          114.1823         0.320769   
     26. A(C   2,N   3,H   9)          115.0989         0.323307   
     27. A(C   4,N   3,H  10)          112.4923         0.320501   
     28. A(C   1,C   4,C   5)          118.5625         0.375617   
     29. A(C   1,C   4,N   3)           87.1025         0.345220   
     30. A(N   3,C   4,H  11)          110.4310         0.315213   
     31. A(C   1,C   4,H  11)          112.4889         0.316137   
     32. A(N   3,C   4,C   5)          113.4043         0.374451   
     33. A(C   5,C   4,H  11)          112.3188         0.342050   
     34. L(C   4,C   5,N   6,N   3, 2) 183.0519         0.481941   
     35. L(C   4,C   5,N   6,N   3, 1) 177.8335         0.481941   
     36. D(H   8,C   2,C   1,C   4)   -110.7093         0.010566   
     37. D(N   3,C   2,C   1,C   4)      3.2608         0.010566   
     38. D(H   7,C   2,C   1,O   0)    -62.5069         0.010566   
     39. D(H   8,C   2,C   1,O   0)     68.9957         0.010566   
     40. D(H   7,C   2,C   1,C   4)    117.7881         0.010566   
     41. D(N   3,C   2,C   1,O   0)   -177.0342         0.010566   
     42. D(C   4,N   3,C   2,H   8)    113.6352         0.011076   
     43. D(H   9,N   3,C   2,H   8)     -4.6992         0.011076   
     44. D(H   9,N   3,C   2,H   7)    120.4608         0.011076   
     45. D(H   9,N   3,C   2,C   1)   -121.6728         0.011076   
     46. D(H  10,N   3,C   2,H   7)     -5.1668         0.011076   
     47. D(H  10,N   3,C   2,H   8)   -130.3268         0.011076   
     48. D(C   4,N   3,C   2,H   7)   -121.2049         0.011076   
     49. D(C   4,N   3,C   2,C   1)     -3.3385         0.011076   
     50. D(H  10,N   3,C   2,C   1)    112.6996         0.011076   
     51. D(H  11,C   4,N   3,H  10)    133.1766         0.010122   
     52. D(H  11,C   4,N   3,H   9)      9.4125         0.010122   
     53. D(H  11,C   4,N   3,C   2)   -109.6893         0.010122   
     54. D(C   5,C   4,N   3,H   9)   -117.6595         0.010122   
     55. D(C   5,C   4,N   3,C   2)    123.2388         0.010122   
     56. D(C   1,C   4,N   3,H  10)   -113.8782         0.010122   
     57. D(C   1,C   4,N   3,H   9)    122.3577         0.010122   
     58. D(C   1,C   4,N   3,C   2)      3.2560         0.010122   
     59. D(H  11,C   4,C   1,C   2)    107.7003         0.008067   
     60. D(H  11,C   4,C   1,O   0)    -72.0154         0.008067   
     61. D(C   5,C   4,N   3,H  10)      6.1047         0.010122   
     62. D(C   5,C   4,C   1,C   2)   -118.4053         0.008067   
     63. D(C   5,C   4,C   1,O   0)     61.8790         0.008067   
     64. D(N   3,C   4,C   1,C   2)     -3.2366         0.008067   
     65. D(N   3,C   4,C   1,O   0)    177.0477         0.008067   
    -----------------------------------------------------------------

Number of atoms                         .... 12
Number of degrees of freedom            .... 65

         *************************************************************
         *                GEOMETRY OPTIMIZATION CYCLE   1            *
         *************************************************************


           ************************************************************
           *        Program running with 8 parallel MPI-processes     *
           *              working on a common directory               *
           ************************************************************
           ************************************************************
           *              Shut down parallel processing               *
           ************************************************************


           ************************************************************
           *        Program running with 8 parallel MPI-processes     *
           *              working on a common directory               *
           ************************************************************
------------
SCF SETTINGS
------------
Hamiltonian:
 Density Functional     Method          .... DFT(GTOs)
 Exchange Functional    Exchange        .... PBE
   PBE kappa parameter  XKappa          ....  0.804000
 Correlation Functional Correlation     .... PBE
 LDA part of GGA corr.  LDAOpt          .... PW91-LDA
 Gradients option       PostSCFGGA      .... off
 Hybrid DFT is turned on
   Fraction HF Exchange ScalHFX         ....  0.250000
   Scaling of DF-GGA-X  ScalDFX         ....  0.750000
   Scaling of DF-GGA-C  ScalDFC         ....  1.000000
   Scaling of DF-LDA-C  ScalLDAC        ....  1.000000
   Perturbative correction              ....  0.000000
   NL short-range parameter             ....  6.900000


General Settings:
 Integral files         IntName         .... 6549_+
 Hartree-Fock type      HFTyp           .... RHF
 Total Charge           Charge          ....    1
 Multiplicity           Mult            ....    1
 Number of Electrons    NEL             ....   50
 Basis Dimension        Dim             ....  247
 Nuclear Repulsion      ENuc            ....    275.8750218989 Eh

Convergence Acceleration:
 DIIS                   CNVDIIS         .... on
   Start iteration      DIISMaxIt       ....    12
   Startup error        DIISStart       ....  0.200000
   # of expansion vecs  DIISMaxEq       ....     5
   Bias factor          DIISBfac        ....   1.050
   Max. coefficient     DIISMaxC        ....  10.000
 Newton-Raphson         CNVNR           .... off
 SOSCF                  CNVSOSCF        .... on
   Start iteration      SOSCFMaxIt      ....   150
   Startup grad/error   SOSCFStart      ....  0.003300
 Level Shifting         CNVShift        .... on
   Level shift para.    LevelShift      ....    0.2500
   Turn off err/grad.   ShiftErr        ....    0.0010
 Zerner damping         CNVZerner       .... off
 Static damping         CNVDamp         .... on
   Fraction old density DampFac         ....    0.7000
   Max. Damping (<1)    DampMax         ....    0.9800
   Min. Damping (>=0)   DampMin         ....    0.0000
   Turn off err/grad.   DampErr         ....    0.1000
 Fernandez-Rico         CNVRico         .... off

SCF Procedure:
 Maximum # iterations   MaxIter         ....   125
 SCF integral mode      SCFMode         .... Direct
   Integral package                     .... LIBINT
 Reset frequeny         DirectResetFreq ....    20
 Integral Threshold     Thresh          ....  2.500e-11 Eh
 Primitive CutOff       TCut            ....  2.500e-12 Eh

Convergence Tolerance:
 Convergence Check Mode ConvCheckMode   .... Total+1el-Energy
 Energy Change          TolE            ....  1.000e-08 Eh
 1-El. energy change                    ....  1.000e-05 Eh
 Orbital Gradient       TolG            ....  1.000e-05
 Orbital Rotation angle TolX            ....  1.000e-05
 DIIS Error             TolErr          ....  5.000e-07


Diagonalization of the overlap matrix:
Smallest eigenvalue                        ... 9.475e-05
Time for diagonalization                   ...    0.351 sec
Threshold for overlap eigenvalues          ... 1.000e-08
Number of eigenvalues below threshold      ... 0
Time for construction of square roots      ...    0.055 sec
Total time needed                          ...    0.406 sec

-------------------
DFT GRID GENERATION
-------------------

General Integration Accuracy     IntAcc      ...  4.340
Radial Grid Type                 RadialGrid  ... Gauss-Chebyshev
Angular Grid (max. acc.)         AngularGrid ... Lebedev-194
Angular grid pruning method      GridPruning ... 3 (G Style)
Weight generation scheme         WeightScheme... Becke
Basis function cutoff            BFCut       ...    1.0000e-11
Integration weight cutoff        WCut        ...    1.0000e-14
Grids for H and He will be reduced by one unit

# of grid points (after initial pruning)     ...  30772 (   0.0 sec)
# of grid points (after weights+screening)   ...  28820 (   0.1 sec)
nearest neighbour list constructed           ...    0.0 sec
Grid point re-assignment to atoms done       ...    0.0 sec
Grid point division into batches done        ...    0.1 sec
Reduced shell lists constructed in    0.1 sec

Total number of grid points                  ...    28820
Total number of batches                      ...      456
Average number of points per batch           ...       63
Average number of grid points per atom       ...     2402
Average number of shells per batch           ...    57.78 (59.56%)
Average number of basis functions per batch  ...   152.22 (61.63%)
Average number of large shells per batch     ...    43.62 (75.50%)
Average number of large basis fcns per batch ...   112.55 (73.94%)
Maximum spatial batch extension              ...  17.36, 17.36, 14.46 au
Average spatial batch extension              ...   0.47,  0.50,  0.48 au

Time for grid setup =    0.425 sec

Loading Hartree-Fock densities                     ... done
Calculating cut-offs                               ... done
Setting up the integral package                    ... done
Initializing the effective Hamiltonian             ... done
Starting the Coulomb interaction                   ... done (   0.0 sec)
Reading the grid                                   ... done
Mapping shells                                     ... done
Starting the XC term evaluation                    ... done (   0.3 sec)
  promolecular density results
     # of electrons  =     50.997201144
     EX              =    -43.123673890
     EC              =     -1.693753611
     EX+EC           =    -44.817427502
Transforming the Hamiltonian                       ... done (   0.0 sec)
Diagonalizing the Hamiltonian                      ... done (   0.1 sec)
Back transforming the eigenvectors                 ... done (   0.0 sec)
Now organizing SCF variables                       ... done
--------------
SCF ITERATIONS
--------------
ITER       Energy         Delta-E        Max-DP      RMS-DP      [F,P]     Damp
               ***  Starting incremental Fock matrix formation  ***
  0   -339.3451568507   0.000000000000 0.08137694  0.00140068  0.2504230 0.7000
  1   -339.4536474175  -0.108490566786 0.06920805  0.00095884  0.0861029 0.7000
                               ***Turning on DIIS***
  2   -339.4823195129  -0.028672095422 0.06536442  0.00128985  0.0345347 0.0000
  3   -339.5504649668  -0.068145453889 0.07854610  0.00090666  0.0462535 0.0000
  4   -339.5549361410  -0.004471174262 0.02230946  0.00030357  0.0318696 0.0000
  5   -339.5580343483  -0.003098207306 0.00647373  0.00009196  0.0078188 0.0000
                      *** Initiating the SOSCF procedure ***
                           *** Shutting down DIIS ***
                      *** Re-Reading the Fockian *** 
                      *** Removing any level shift *** 
ITER      Energy       Delta-E        Grad      Rot      Max-DP    RMS-DP
  6   -339.55818990  -0.0001555553  0.000606  0.000606  0.001349  0.000026
               *** Restarting incremental Fock matrix formation ***
  7   -339.55820014  -0.0000102376  0.000285  0.000743  0.000732  0.000018
  8   -339.55819697   0.0000031746  0.000644  0.000488  0.000687  0.000010
  9   -339.55820155  -0.0000045840  0.000044  0.000121  0.000100  0.000002
 10   -339.55820148   0.0000000676  0.000103  0.000102  0.000082  0.000002
 11   -339.55820160  -0.0000001154  0.000024  0.000044  0.000033  0.000001
 12   -339.55820159   0.0000000046  0.000019  0.000019  0.000018  0.000000
                  ***Gradient check signals convergence***
              ***Rediagonalizing the Fockian in SOSCF/NRSCF***

               *****************************************************
               *                     SUCCESS                       *
               *           SCF CONVERGED AFTER  13 CYCLES          *
               *****************************************************

Setting up the final grid:

General Integration Accuracy     IntAcc      ...  5.010
Radial Grid Type                 RadialGrid  ... Gauss-Chebyshev
Angular Grid (max. acc.)         AngularGrid ... Lebedev-434
Angular grid pruning method      GridPruning ... 3 (G Style)
Weight generation scheme         WeightScheme... Becke
Basis function cutoff            BFCut       ...    1.0000e-11
Integration weight cutoff        WCut        ...    1.0000e-14
Grids for H and He will be reduced by one unit

# of grid points (after initial pruning)     ... 108274 (   0.0 sec)
# of grid points (after weights+screening)   ... 100399 (   2.3 sec)
nearest neighbour list constructed           ...    0.0 sec
Grid point re-assignment to atoms done       ...    0.0 sec
Grid point division into batches done        ...    1.0 sec
Reduced shell lists constructed in    1.2 sec

Total number of grid points                  ...   100399
Total number of batches                      ...     1575
Average number of points per batch           ...       63
Average number of grid points per atom       ...     8367
Average number of shells per batch           ...    53.79 (55.45%)
Average number of basis functions per batch  ...   140.41 (56.85%)
Average number of large shells per batch     ...    40.52 (75.32%)
Average number of large basis fcns per batch ...   103.64 (73.81%)
Maximum spatial batch extension              ...  12.36, 13.42, 13.88 au
Average spatial batch extension              ...   0.33,  0.35,  0.32 au

Final grid set up in    4.1 sec
Final integration                            ... done (   0.7 sec)
Change in XC energy                          ...     0.000303786
Integrated number of electrons               ...    50.000001198
Previous integrated no of electrons          ...    50.000101157
Total Energy       :         -339.55789782 Eh           -9239.84014 eV
  Last Energy change         ...   -1.0263e-08  Tolerance :   1.0000e-08
  Last MAX-Density change    ...    4.3214e-06  Tolerance :   1.0000e-07
             **** THE GBW FILE WAS UPDATED (6549_+.gbw) ****
             **** DENSITY FILE WAS UPDATED (6549_+.scfp.tmp) ****
             **** ENERGY FILE WAS UPDATED (6549_+.en.tmp) ****
Total SCF time: 0 days 0 hours 1 min 11 sec 
           ************************************************************
           *              Shut down parallel processing               *
           ************************************************************

-------------------------   --------------------
FINAL SINGLE POINT ENERGY      -339.557897818124
-------------------------   --------------------



           ************************************************************
           *        Program running with 8 parallel MPI-processes     *
           *              working on a common directory               *
           ************************************************************
------------------------------------------------------------------------------
                         ORCA SCF GRADIENT CALCULATION
------------------------------------------------------------------------------

Gradient of the Kohn-Sham DFT energy:
Kohn-Sham wavefunction type      ... RKS
Hartree-Fock exchange scaling    ...    0.250
Number of operators              ...    1
Number of atoms                  ...   12
Basis set dimensions             ...  247
Integral neglect threshold       ... 2.5e-11
Integral primitive cutoff        ... 2.5e-12

Nuclear repulsion gradient       ... done
One Electron Gradient            ... done
Pre-screening matrix             ... done
Starting the two electron gradient:
Two electron gradient done
Exchange-correlation gradient    ... done

------------------
CARTESIAN GRADIENT
------------------

   1   O   :    0.000006798   -0.000020961   -0.000015889
   2   C   :   -0.000058199    0.000026900    0.000046404
   3   C   :   -0.000113254   -0.000086708   -0.000089108
   4   N   :   -0.000015275   -0.000049423   -0.000072086
   5   C   :    0.000066589   -0.000032648    0.000005849
   6   C   :    0.000015161    0.000015476    0.000021903
   7   N   :   -0.000057927    0.000015324   -0.000029919
   8   H   :    0.000043338    0.000142649    0.000009632
   9   H   :    0.000134008   -0.000035282    0.000051070
  10   H   :   -0.000059247    0.000099288    0.000057389
  11   H   :    0.000032015   -0.000081126    0.000035113
  12   H   :    0.000005993    0.000006511   -0.000020359

Norm of the cartesian gradient     ...    0.000352495
RMS gradient                       ...    0.000058749
MAX gradient                       ...    0.000142649

-------
TIMINGS
-------

Total SCF gradient time            ...       24.298 sec

One electron gradient       ....       0.116 sec  (  0.5%)
Prescreening matrices       ....       0.400 sec  (  1.6%)
Two electron gradient       ....      21.027 sec  ( 86.5%)
XC gradient                 ....       2.136 sec  (  8.8%)
           ************************************************************
           *              Shut down parallel processing               *
           ************************************************************
------------------------------------------------------------------------------
                         ORCA GEOMETRY RELAXATION STEP
------------------------------------------------------------------------------

Reading the OPT-File                    .... done
Getting information on internals        .... done
Copying old internal coords+grads       .... done
Making the new internal coordinates     .... (new redundants).... done
Validating the new internal coordinates .... (new redundants).... done
Calculating the B-matrix                .... done
Calculating the G,G- and P matrices     .... done
Transforming gradient to internals      .... done
Projecting the internal gradient        .... done
Number of atoms                         ....  12
Number of internal coordinates          ....  65
Current Energy                          ....  -339.557897818 Eh
Current gradient norm                   ....     0.000352495 Eh/bohr
Maximum allowed component of the step   ....  0.300
Current trust radius                    ....  0.300
Evaluating the initial hessian          ....  (Almloef) done
Projecting the Hessian                  .... done
Forming the augmented Hessian           .... done
Diagonalizing the augmented Hessian     .... done
Last element of RFO vector              ....  0.999998568
Lowest eigenvalues of augmented Hessian:
 -0.000000244  0.009359500  0.010347280  0.061600868  0.080209792
Length of the computed step             ....  0.001692134
The final length of the internal step   ....  0.001692134
Converting the step to cartesian space:
 Initial RMS(Int)=    0.0002098834
Transforming coordinates:
 Iter   0:  RMS(Cart)=    0.0002301349 RMS(Int)=    0.0002098784
 Iter   1:  RMS(Cart)=    0.0000004589 RMS(Int)=    0.0000003314
 Iter   2:  RMS(Cart)=    0.0000002292 RMS(Int)=    0.0000001653
 Iter   3:  RMS(Cart)=    0.0000001146 RMS(Int)=    0.0000000827
 Iter   4:  RMS(Cart)=    0.0000000573 RMS(Int)=    0.0000000413
done
Storing new coordinates                 .... done

                                .--------------------.
          ----------------------|Geometry convergence|---------------------
          Item                value                 Tolerance   Converged
          -----------------------------------------------------------------
          RMS gradient        0.00003552            0.00003000      NO
          MAX gradient        0.00014576            0.00010000      NO
          RMS step            0.00020988            0.00060000      YES
          MAX step            0.00062647            0.00100000      YES
          ....................................................
          Max(Bonds)      0.0002      Max(Angles)    0.01
          Max(Dihed)        0.04      Max(Improp)    0.00
          -----------------------------------------------------------------

The optimization has not yet converged - more geometry cycles are needed


    ---------------------------------------------------------------------------
                         Redundant Internal Coordinates
                            (Angstroem and degrees)

        Definition                    Value    dE/dq     Step     New-Value
    ----------------------------------------------------------------------------
     1. B(C   1,O   0)                1.1691 -0.000018  0.0000    1.1691   
     2. B(C   2,C   1)                1.5282  0.000050 -0.0001    1.5281   
     3. B(N   3,C   2)                1.5205  0.000009 -0.0000    1.5205   
     4. B(C   4,N   3)                1.5336 -0.000032  0.0001    1.5337   
     5. B(C   4,C   1)                1.5687  0.000006 -0.0000    1.5686   
     6. B(C   5,C   4)                1.4387  0.000051 -0.0001    1.4387   
     7. B(N   6,C   5)                1.1493  0.000067 -0.0000    1.1492   
     8. B(H   7,C   2)                1.0906  0.000146 -0.0002    1.0904   
     9. B(H   8,C   2)                1.0909  0.000144 -0.0002    1.0907   
    10. B(H   9,N   3)                1.0206 -0.000127  0.0002    1.0208   
    11. B(H  10,N   3)                1.0220 -0.000089  0.0001    1.0221   
    12. B(H  11,C   4)                1.0939 -0.000006  0.0000    1.0939   
    13. A(C   2,C   1,C   4)           91.01 -0.000010    0.00     91.01   
    14. A(O   0,C   1,C   4)          133.42 -0.000007    0.00    133.42   
    15. A(O   0,C   1,C   2)          135.57  0.000017   -0.00    135.57   
    16. A(C   1,C   2,H   7)          116.01  0.000008   -0.00    116.01   
    17. A(N   3,C   2,H   7)          112.36  0.000015   -0.00    112.35   
    18. A(N   3,C   2,H   8)          111.99  0.000014   -0.00    111.99   
    19. A(C   1,C   2,H   8)          115.26  0.000008   -0.00    115.26   
    20. A(H   7,C   2,H   8)          110.57 -0.000023    0.01    110.58   
    21. A(C   1,C   2,N   3)           89.04 -0.000018    0.00     89.04   
    22. A(C   2,N   3,C   4)           92.66  0.000017   -0.00     92.66   
    23. A(H   9,N   3,H  10)          108.16 -0.000007    0.01    108.17   
    24. A(C   2,N   3,H  10)          113.78  0.000001   -0.00    113.77   
    25. A(C   4,N   3,H   9)          114.18  0.000003   -0.00    114.18   
    26. A(C   2,N   3,H   9)          115.10 -0.000010    0.00    115.10   
    27. A(C   4,N   3,H  10)          112.49 -0.000002   -0.00    112.49   
    28. A(C   1,C   4,C   5)          118.56 -0.000010    0.00    118.57   
    29. A(C   1,C   4,N   3)           87.10  0.000011   -0.00     87.10   
    30. A(N   3,C   4,H  11)          110.43 -0.000013    0.01    110.44   
    31. A(C   1,C   4,H  11)          112.49  0.000006   -0.01    112.48   
    32. A(N   3,C   4,C   5)          113.40 -0.000000   -0.00    113.40   
    33. A(C   5,C   4,H  11)          112.32  0.000006   -0.00    112.32   
    34. L(C   4,C   5,N   6,N   3, 2) 183.05 -0.000005    0.00    183.05   
    35. L(C   4,C   5,N   6,N   3, 1) 177.83  0.000007   -0.00    177.83   
    36. D(H   8,C   2,C   1,C   4)   -110.71 -0.000009    0.01   -110.70   
    37. D(N   3,C   2,C   1,C   4)      3.26 -0.000000    0.01      3.27   
    38. D(H   7,C   2,C   1,O   0)    -62.51  0.000002    0.03    -62.48   
    39. D(H   8,C   2,C   1,O   0)     69.00 -0.000016    0.04     69.03   
    40. D(H   7,C   2,C   1,C   4)    117.79  0.000009    0.00    117.79   
    41. D(N   3,C   2,C   1,O   0)   -177.03 -0.000008    0.03   -177.00   
    42. D(C   4,N   3,C   2,H   8)    113.64  0.000003   -0.01    113.63   
    43. D(H   9,N   3,C   2,H   8)     -4.70 -0.000007   -0.00     -4.70   
    44. D(H   9,N   3,C   2,H   7)    120.46 -0.000015    0.00    120.46   
    45. D(H   9,N   3,C   2,C   1)   -121.67 -0.000011   -0.00   -121.67   
    46. D(H  10,N   3,C   2,H   7)     -5.17  0.000002   -0.01     -5.17   
    47. D(H  10,N   3,C   2,H   8)   -130.33  0.000011   -0.01   -130.34   
    48. D(C   4,N   3,C   2,H   7)   -121.20 -0.000005   -0.00   -121.21   
    49. D(C   4,N   3,C   2,C   1)     -3.34 -0.000001   -0.01     -3.34   
    50. D(H  10,N   3,C   2,C   1)    112.70  0.000007   -0.01    112.69   
    51. D(H  11,C   4,N   3,H  10)    133.18 -0.000016    0.02    133.19   
    52. D(H  11,C   4,N   3,H   9)      9.41 -0.000008    0.01      9.43   
    53. D(H  11,C   4,N   3,C   2)   -109.69 -0.000007    0.01   -109.68   
    54. D(C   5,C   4,N   3,H   9)   -117.66 -0.000005    0.01   -117.65   
    55. D(C   5,C   4,N   3,C   2)    123.24 -0.000004    0.01    123.25   
    56. D(C   1,C   4,N   3,H  10)   -113.88 -0.000008    0.01   -113.87   
    57. D(C   1,C   4,N   3,H   9)    122.36  0.000001    0.01    122.36   
    58. D(C   1,C   4,N   3,C   2)      3.26  0.000001    0.01      3.26   
    59. D(H  11,C   4,C   1,C   2)    107.70 -0.000010   -0.00    107.70   
    60. D(H  11,C   4,C   1,O   0)    -72.02 -0.000003   -0.03    -72.04   
    61. D(C   5,C   4,N   3,H  10)      6.10 -0.000013    0.01      6.12   
    62. D(C   5,C   4,C   1,C   2)   -118.41 -0.000005   -0.00   -118.41   
    63. D(C   5,C   4,C   1,O   0)     61.88  0.000003   -0.03     61.85   
    64. D(N   3,C   4,C   1,C   2)     -3.24 -0.000001   -0.01     -3.24   
    65. D(N   3,C   4,C   1,O   0)    177.05  0.000007   -0.03    177.02   
    ----------------------------------------------------------------------------

         *************************************************************
         *                GEOMETRY OPTIMIZATION CYCLE   2            *
         *************************************************************
---------------------------------
CARTESIAN COORDINATES (ANGSTROEM)
---------------------------------
  O     -0.000101    0.000347    2.099706
  C      0.432045   -0.017807    1.013547
  C      1.686630    0.523264    0.329114
  N      1.157824    0.000100   -0.997031
  C     -0.072467   -0.635090   -0.337406
  C     -1.318796   -0.168475   -0.883977
  N     -2.292612    0.256033   -1.322423
  H      1.802335    1.607522    0.330694
  H      2.619989    0.037678    0.616776
  H      1.767136   -0.665748   -1.473867
  H      0.909163    0.736509   -1.660807
  H      0.005819   -1.726065   -0.353882

----------------------------
CARTESIAN COORDINATES (A.U.)
----------------------------
  NO LB      ZA    FRAG    MASS        X           Y           Z
   0 O     8.0000    0    15.999         -0.000191754751360          0.000655718199605          3.967868720499065
   1 C     6.0000    0    12.011          0.816447669077689         -0.033650862933707          1.915326176992889
   2 C     6.0000    0    12.011          3.187269357382461          0.988826588243982          0.621934891104088
   3 N     7.0000    0    14.007          2.187970298727992          0.000189000958151         -1.884114673825609
   4 C     6.0000    0    12.011         -0.136942088167936         -1.200147073564867         -0.637604091128369
   5 C     6.0000    0    12.011         -2.492163684707255         -0.318372061318526         -1.670473755674224
   6 N     7.0000    0    14.007         -4.332408774945109          0.483833089194255         -2.499016983290311
   7 H     1.0000    0     1.008          3.405919560579616          3.037776555021441          0.624921758449063
   8 H     1.0000    0     1.008          4.951061926710725          0.071200885439646          1.165538001618481
   9 H     1.0000    0     1.008          3.339403447868488         -1.258081010535244         -2.785204544379008
  10 H     1.0000    0     1.008          1.718069520926794          1.391800831792712         -3.138469622377990
  11 H     1.0000    0     1.008          0.010996976010545         -3.261790083795361         -0.668740872092216

--------------------------------
INTERNAL COORDINATES (ANGSTROEM)
--------------------------------
 O      0   0   0   0.000000     0.000     0.000
 C      1   0   0   1.169111     0.000     0.000
 C      2   1   0   1.528133   135.568     0.000
 N      3   2   1   1.520525    89.042   182.999
 C      4   3   2   1.533684    92.658   356.656
 C      5   4   3   1.438682   113.404   123.248
 N      6   5   4   1.149243   177.198   319.413
 H      3   2   1   1.090415   116.011   297.521
 H      3   2   1   1.090735   115.264    69.032
 H      4   3   2   1.020778   115.103   238.327
 H      4   3   2   1.022120   113.773   112.690
 H      5   4   3   1.093904   110.436   250.322

---------------------------
INTERNAL COORDINATES (A.U.)
---------------------------
 O      0   0   0   0.000000     0.000     0.000
 C      1   0   0   2.209300     0.000     0.000
 C      2   1   0   2.887753   135.568     0.000
 N      3   2   1   2.873376    89.042   182.999
 C      4   3   2   2.898243    92.658   356.656
 C      5   4   3   2.718716   113.404   123.248
 N      6   5   4   2.171755   177.198   319.413
 H      3   2   1   2.060586   116.011   297.521
 H      3   2   1   2.061190   115.264    69.032
 H      4   3   2   1.928991   115.103   238.327
 H      4   3   2   1.931527   113.773   112.690
 H      5   4   3   2.067179   110.436   250.322



           ************************************************************
           *        Program running with 8 parallel MPI-processes     *
           *              working on a common directory               *
           ************************************************************
           ************************************************************
           *              Shut down parallel processing               *
           ************************************************************


           ************************************************************
           *        Program running with 8 parallel MPI-processes     *
           *              working on a common directory               *
           ************************************************************

Diagonalization of the overlap matrix:
Smallest eigenvalue                        ... 9.473e-05
Time for diagonalization                   ...    0.344 sec
Threshold for overlap eigenvalues          ... 1.000e-08
Number of eigenvalues below threshold      ... 0
Time for construction of square roots      ...    0.017 sec
Total time needed                          ...    0.361 sec

-------------------
DFT GRID GENERATION
-------------------

General Integration Accuracy     IntAcc      ...  4.340
Radial Grid Type                 RadialGrid  ... Gauss-Chebyshev
Angular Grid (max. acc.)         AngularGrid ... Lebedev-194
Angular grid pruning method      GridPruning ... 3 (G Style)
Weight generation scheme         WeightScheme... Becke
Basis function cutoff            BFCut       ...    1.0000e-11
Integration weight cutoff        WCut        ...    1.0000e-14
Grids for H and He will be reduced by one unit

# of grid points (after initial pruning)     ...  30772 (   0.0 sec)
# of grid points (after weights+screening)   ...  28820 (   0.2 sec)
nearest neighbour list constructed           ...    0.0 sec
Grid point re-assignment to atoms done       ...    0.0 sec
Grid point division into batches done        ...    0.1 sec
Reduced shell lists constructed in    0.1 sec

Total number of grid points                  ...    28820
Total number of batches                      ...      456
Average number of points per batch           ...       63
Average number of grid points per atom       ...     2402
Average number of shells per batch           ...    57.71 (59.49%)
Average number of basis functions per batch  ...   152.05 (61.56%)
Average number of large shells per batch     ...    43.71 (75.74%)
Average number of large basis fcns per batch ...   112.98 (74.31%)
Maximum spatial batch extension              ...  17.36, 17.36, 14.46 au
Average spatial batch extension              ...   0.47,  0.50,  0.47 au

Time for grid setup =    0.578 sec

--------------
SCF ITERATIONS
--------------
ITER       Energy         Delta-E        Max-DP      RMS-DP      [F,P]     Damp
               ***  Starting incremental Fock matrix formation  ***
                      *** Initiating the SOSCF procedure ***
                      *** Re-Reading the Fockian *** 
                      *** Removing any level shift *** 
ITER      Energy       Delta-E        Grad      Rot      Max-DP    RMS-DP
  0   -339.55820153 -339.5582015316  0.000056  0.000056  0.000077  0.000002
               *** Restarting incremental Fock matrix formation ***
  1   -339.55820165  -0.0000001139  0.000027  0.000064  0.000029  0.000001
  2   -339.55820165  -0.0000000080  0.000017  0.000026  0.000019  0.000000
  3   -339.55820166  -0.0000000051  0.000011  0.000017  0.000013  0.000000
  4   -339.55820166  -0.0000000004  0.000008  0.000006  0.000007  0.000000
                  ***Gradient check signals convergence***
              ***Rediagonalizing the Fockian in SOSCF/NRSCF***

               *****************************************************
               *                     SUCCESS                       *
               *           SCF CONVERGED AFTER   5 CYCLES          *
               *****************************************************

Setting up the final grid:

General Integration Accuracy     IntAcc      ...  5.010
Radial Grid Type                 RadialGrid  ... Gauss-Chebyshev
Angular Grid (max. acc.)         AngularGrid ... Lebedev-434
Angular grid pruning method      GridPruning ... 3 (G Style)
Weight generation scheme         WeightScheme... Becke
Basis function cutoff            BFCut       ...    1.0000e-11
Integration weight cutoff        WCut        ...    1.0000e-14
Grids for H and He will be reduced by one unit

# of grid points (after initial pruning)     ... 108274 (   0.0 sec)
# of grid points (after weights+screening)   ... 100400 (   1.2 sec)
nearest neighbour list constructed           ...    0.0 sec
Grid point re-assignment to atoms done       ...    0.0 sec
Grid point division into batches done        ...    0.8 sec
Reduced shell lists constructed in    1.0 sec

Total number of grid points                  ...   100400
Total number of batches                      ...     1575
Average number of points per batch           ...       63
Average number of grid points per atom       ...     8367
Average number of shells per batch           ...    53.77 (55.43%)
Average number of basis functions per batch  ...   140.49 (56.88%)
Average number of large shells per batch     ...    40.49 (75.31%)
Average number of large basis fcns per batch ...   103.49 (73.66%)
Maximum spatial batch extension              ...  12.36, 13.42, 13.88 au
Average spatial batch extension              ...   0.33,  0.34,  0.32 au

Final grid set up in    3.1 sec
Final integration                            ... done (   0.8 sec)
Change in XC energy                          ...     0.000303690
Integrated number of electrons               ...    50.000001221
Previous integrated no of electrons          ...    50.000101124
Total Energy       :         -339.55789797 Eh           -9239.84015 eV
  Last Energy change         ...   -1.1158e-09  Tolerance :   1.0000e-08
  Last MAX-Density change    ...    3.4912e-06  Tolerance :   1.0000e-07
             **** THE GBW FILE WAS UPDATED (6549_+.gbw) ****
             **** DENSITY FILE WAS UPDATED (6549_+.scfp.tmp) ****
             **** ENERGY FILE WAS UPDATED (6549_+.en.tmp) ****
Total SCF time: 0 days 0 hours 0 min 29 sec 
           ************************************************************
           *              Shut down parallel processing               *
           ************************************************************

-------------------------   --------------------
FINAL SINGLE POINT ENERGY      -339.557897970118
-------------------------   --------------------



           ************************************************************
           *        Program running with 8 parallel MPI-processes     *
           *              working on a common directory               *
           ************************************************************
------------------------------------------------------------------------------
                         ORCA SCF GRADIENT CALCULATION
------------------------------------------------------------------------------

Gradient of the Kohn-Sham DFT energy:
Kohn-Sham wavefunction type      ... RKS
Hartree-Fock exchange scaling    ...    0.250
Number of operators              ...    1
Number of atoms                  ...   12
Basis set dimensions             ...  247
Integral neglect threshold       ... 2.5e-11
Integral primitive cutoff        ... 2.5e-12

Nuclear repulsion gradient       ... done
One Electron Gradient            ... done
Pre-screening matrix             ... done
Starting the two electron gradient:
Two electron gradient done
Exchange-correlation gradient    ... done

------------------
CARTESIAN GRADIENT
------------------

   1   O   :   -0.000002488   -0.000001069   -0.000013898
   2   C   :   -0.000012335   -0.000005939    0.000033644
   3   C   :   -0.000015605   -0.000009622   -0.000031213
   4   N   :   -0.000043286   -0.000003085    0.000025043
   5   C   :    0.000035821   -0.000019346    0.000001101
   6   C   :   -0.000007929    0.000025908    0.000005088
   7   N   :   -0.000004652   -0.000007681   -0.000005460
   8   H   :    0.000021051    0.000002572    0.000002094
   9   H   :    0.000010047    0.000019263    0.000009932
  10   H   :    0.000016469   -0.000000500   -0.000000216
  11   H   :    0.000006888   -0.000002477   -0.000018152
  12   H   :   -0.000003979    0.000001976   -0.000007963

Norm of the cartesian gradient     ...    0.000098143
RMS gradient                       ...    0.000016357
MAX gradient                       ...    0.000043286

-------
TIMINGS
-------

Total SCF gradient time            ...       24.081 sec

One electron gradient       ....       0.132 sec  (  0.5%)
Prescreening matrices       ....       0.494 sec  (  2.1%)
Two electron gradient       ....      20.582 sec  ( 85.5%)
XC gradient                 ....       2.205 sec  (  9.2%)
           ************************************************************
           *              Shut down parallel processing               *
           ************************************************************
------------------------------------------------------------------------------
                         ORCA GEOMETRY RELAXATION STEP
------------------------------------------------------------------------------

Reading the OPT-File                    .... done
Getting information on internals        .... done
Copying old internal coords+grads       .... done
Making the new internal coordinates     .... (new redundants).... done
Validating the new internal coordinates .... (new redundants).... done
Calculating the B-matrix                .... done
Calculating the G,G- and P matrices     .... done
Transforming gradient to internals      .... done
Projecting the internal gradient        .... done
Number of atoms                         ....  12
Number of internal coordinates          ....  65
Current Energy                          ....  -339.557897970 Eh
Current gradient norm                   ....     0.000098143 Eh/bohr
Maximum allowed component of the step   ....  0.300
Current trust radius                    ....  0.300
Updating the Hessian (BFGS)             .... done
Forming the augmented Hessian           .... done
Diagonalizing the augmented Hessian     .... done
Last element of RFO vector              ....  0.999999219
Lowest eigenvalues of augmented Hessian:
 -0.000000029  0.009070182  0.010236092  0.059548237  0.079980538
Length of the computed step             ....  0.001249527
The final length of the internal step   ....  0.001249527
Converting the step to cartesian space:
 Initial RMS(Int)=    0.0001549847
Transforming coordinates:
 Iter   0:  RMS(Cart)=    0.0002404174 RMS(Int)=    0.0001549798
 Iter   1:  RMS(Cart)=    0.0000005193 RMS(Int)=    0.0000003715
 Iter   2:  RMS(Cart)=    0.0000002573 RMS(Int)=    0.0000001856
 Iter   3:  RMS(Cart)=    0.0000001287 RMS(Int)=    0.0000000928
 Iter   4:  RMS(Cart)=    0.0000000643 RMS(Int)=    0.0000000464
done
Storing new coordinates                 .... done

                                .--------------------.
          ----------------------|Geometry convergence|---------------------
          Item                value                 Tolerance   Converged
          -----------------------------------------------------------------
          Energy change      -0.00000015            0.00000100      YES
          RMS gradient        0.00000667            0.00003000      YES
          MAX gradient        0.00001933            0.00010000      YES
          RMS step            0.00015498            0.00060000      YES
          MAX step            0.00034430            0.00100000      YES
          ....................................................
          Max(Bonds)      0.0000      Max(Angles)    0.01
          Max(Dihed)        0.02      Max(Improp)    0.00
          -----------------------------------------------------------------

                    ***********************HURRAY********************
                    ***        THE OPTIMIZATION HAS CONVERGED     ***
                    *************************************************


    ---------------------------------------------------------------------------
                         Redundant Internal Coordinates

                          --- Optimized Parameters ---  
                            (Angstroem and degrees)

        Definition                    OldVal   dE/dq     Step     FinalVal
    ----------------------------------------------------------------------------
     1. B(C   1,O   0)                1.1691 -0.000012  0.0000    1.1691   
     2. B(C   2,C   1)                1.5281  0.000019 -0.0000    1.5281   
     3. B(N   3,C   2)                1.5205  0.000000  0.0000    1.5205   
     4. B(C   4,N   3)                1.5337 -0.000015  0.0000    1.5337   
     5. B(C   4,C   1)                1.5686  0.000001 -0.0000    1.5686   
     6. B(C   5,C   4)                1.4387  0.000018 -0.0000    1.4387   
     7. B(N   6,C   5)                1.1492  0.000004 -0.0000    1.1492   
     8. B(H   7,C   2)                1.0904  0.000004 -0.0000    1.0904   
     9. B(H   8,C   2)                1.0907  0.000003 -0.0000    1.0907   
    10. B(H   9,N   3)                1.0208  0.000010  0.0000    1.0208   
    11. B(H  10,N   3)                1.0221  0.000009 -0.0000    1.0221   
    12. B(H  11,C   4)                1.0939 -0.000002  0.0000    1.0939   
    13. A(C   2,C   1,C   4)           91.01 -0.000008    0.00     91.01   
    14. A(O   0,C   1,C   4)          133.42 -0.000004    0.00    133.42   
    15. A(O   0,C   1,C   2)          135.57  0.000012   -0.00    135.57   
    16. A(C   1,C   2,H   7)          116.01  0.000007   -0.00    116.01   
    17. A(N   3,C   2,H   7)          112.35  0.000004   -0.00    112.35   
    18. A(N   3,C   2,H   8)          111.99  0.000010   -0.00    111.99   
    19. A(C   1,C   2,H   8)          115.26  0.000002    0.00    115.26   
    20. A(H   7,C   2,H   8)          110.58 -0.000015    0.01    110.59   
    21. A(C   1,C   2,N   3)           89.04 -0.000004    0.00     89.04   
    22. A(C   2,N   3,C   4)           92.66  0.000005   -0.00     92.66   
    23. A(H   9,N   3,H  10)          108.17 -0.000004    0.00    108.17   
    24. A(C   2,N   3,H  10)          113.77  0.000000   -0.00    113.77   
    25. A(C   4,N   3,H   9)          114.18  0.000002   -0.00    114.18   
    26. A(C   2,N   3,H   9)          115.10 -0.000004    0.00    115.11   
    27. A(C   4,N   3,H  10)          112.49  0.000003   -0.00    112.49   
    28. A(C   1,C   4,C   5)          118.57 -0.000006    0.00    118.57   
    29. A(C   1,C   4,N   3)           87.10  0.000007   -0.00     87.10   
    30. A(N   3,C   4,H  11)          110.44 -0.000001    0.00    110.44   
    31. A(C   1,C   4,H  11)          112.48  0.000002   -0.00    112.48   
    32. A(N   3,C   4,C   5)          113.40 -0.000004    0.00    113.40   
    33. A(C   5,C   4,H  11)          112.32  0.000003   -0.00    112.32   
    34. L(C   4,C   5,N   6,N   3, 2) 183.05 -0.000005    0.00    183.05   
    35. L(C   4,C   5,N   6,N   3, 1) 177.83  0.000008   -0.00    177.83   
    36. D(H   8,C   2,C   1,C   4)   -110.70 -0.000010    0.02   -110.68   
    37. D(N   3,C   2,C   1,C   4)      3.27 -0.000001    0.01      3.28   
    38. D(H   7,C   2,C   1,O   0)    -62.48  0.000005   -0.00    -62.48   
    39. D(H   8,C   2,C   1,O   0)     69.03 -0.000008    0.00     69.04   
    40. D(H   7,C   2,C   1,C   4)    117.79  0.000003    0.01    117.80   
    41. D(N   3,C   2,C   1,O   0)   -177.00  0.000002    0.00   -177.00   
    42. D(C   4,N   3,C   2,H   8)    113.63  0.000003   -0.01    113.62   
    43. D(H   9,N   3,C   2,H   8)     -4.70 -0.000001   -0.01     -4.71   
    44. D(H   9,N   3,C   2,H   7)    120.46 -0.000010   -0.00    120.46   
    45. D(H   9,N   3,C   2,C   1)   -121.67 -0.000003   -0.01   -121.68   
    46. D(H  10,N   3,C   2,H   7)     -5.17 -0.000001   -0.01     -5.18   
    47. D(H  10,N   3,C   2,H   8)   -130.34  0.000008   -0.02   -130.35   
    48. D(C   4,N   3,C   2,H   7)   -121.21 -0.000006   -0.01   -121.21   
    49. D(C   4,N   3,C   2,C   1)     -3.34  0.000000   -0.01     -3.36   
    50. D(H  10,N   3,C   2,C   1)    112.69  0.000006   -0.02    112.67   
    51. D(H  11,C   4,N   3,H  10)    133.19 -0.000008    0.02    133.21   
    52. D(H  11,C   4,N   3,H   9)      9.43 -0.000007    0.02      9.44   
    53. D(H  11,C   4,N   3,C   2)   -109.68 -0.000005    0.02   -109.66   
    54. D(C   5,C   4,N   3,H   9)   -117.65 -0.000006    0.02   -117.63   
    55. D(C   5,C   4,N   3,C   2)    123.25 -0.000004    0.02    123.26   
    56. D(C   1,C   4,N   3,H  10)   -113.87 -0.000003    0.02   -113.85   
    57. D(C   1,C   4,N   3,H   9)    122.36 -0.000002    0.01    122.38   
    58. D(C   1,C   4,N   3,C   2)      3.26 -0.000000    0.01      3.27   
    59. D(H  11,C   4,C   1,C   2)    107.70  0.000002   -0.01    107.69   
    60. D(H  11,C   4,C   1,O   0)    -72.04 -0.000000   -0.00    -72.04   
    61. D(C   5,C   4,N   3,H  10)      6.12 -0.000007    0.02      6.14   
    62. D(C   5,C   4,C   1,C   2)   -118.41  0.000002   -0.01   -118.42   
    63. D(C   5,C   4,C   1,O   0)     61.85 -0.000001   -0.00     61.85   
    64. D(N   3,C   4,C   1,C   2)     -3.24  0.000000   -0.01     -3.25   
    65. D(N   3,C   4,C   1,O   0)    177.02 -0.000002   -0.00    177.02   
    ----------------------------------------------------------------------------
                 *******************************************************
                 *** FINAL ENERGY EVALUATION AT THE STATIONARY POINT ***
                 ***               (AFTER    2 CYCLES)               ***
                 *******************************************************


           ************************************************************
           *        Program running with 8 parallel MPI-processes     *
           *              working on a common directory               *
           ************************************************************
           ************************************************************
           *              Shut down parallel processing               *
           ************************************************************


           ************************************************************
           *        Program running with 8 parallel MPI-processes     *
           *              working on a common directory               *
           ************************************************************
------------
SCF SETTINGS
------------
Hamiltonian:
 Density Functional     Method          .... DFT(GTOs)
 Exchange Functional    Exchange        .... PBE
   PBE kappa parameter  XKappa          ....  0.804000
 Correlation Functional Correlation     .... PBE
 LDA part of GGA corr.  LDAOpt          .... PW91-LDA
 Gradients option       PostSCFGGA      .... off
 Hybrid DFT is turned on
   Fraction HF Exchange ScalHFX         ....  0.250000
   Scaling of DF-GGA-X  ScalDFX         ....  0.750000
   Scaling of DF-GGA-C  ScalDFC         ....  1.000000
   Scaling of DF-LDA-C  ScalLDAC        ....  1.000000
   Perturbative correction              ....  0.000000
   NL short-range parameter             ....  6.900000


General Settings:
 Integral files         IntName         .... 6549_+
 Hartree-Fock type      HFTyp           .... RHF
 Total Charge           Charge          ....    1
 Multiplicity           Mult            ....    1
 Number of Electrons    NEL             ....   50
 Basis Dimension        Dim             ....  247
 Nuclear Repulsion      ENuc            ....    275.8790537034 Eh

Convergence Acceleration:
 DIIS                   CNVDIIS         .... on
   Start iteration      DIISMaxIt       ....    12
   Startup error        DIISStart       ....  0.200000
   # of expansion vecs  DIISMaxEq       ....     5
   Bias factor          DIISBfac        ....   1.050
   Max. coefficient     DIISMaxC        ....  10.000
 Newton-Raphson         CNVNR           .... off
 SOSCF                  CNVSOSCF        .... on
   Start iteration      SOSCFMaxIt      ....   150
   Startup grad/error   SOSCFStart      ....  0.003300
 Level Shifting         CNVShift        .... on
   Level shift para.    LevelShift      ....    0.2500
   Turn off err/grad.   ShiftErr        ....    0.0010
 Zerner damping         CNVZerner       .... off
 Static damping         CNVDamp         .... on
   Fraction old density DampFac         ....    0.7000
   Max. Damping (<1)    DampMax         ....    0.9800
   Min. Damping (>=0)   DampMin         ....    0.0000
   Turn off err/grad.   DampErr         ....    0.1000
 Fernandez-Rico         CNVRico         .... off

SCF Procedure:
 Maximum # iterations   MaxIter         ....   125
 SCF integral mode      SCFMode         .... Direct
   Integral package                     .... LIBINT
 Reset frequeny         DirectResetFreq ....    20
 Integral Threshold     Thresh          ....  2.500e-11 Eh
 Primitive CutOff       TCut            ....  2.500e-12 Eh

Convergence Tolerance:
 Convergence Check Mode ConvCheckMode   .... Total+1el-Energy
 Energy Change          TolE            ....  1.000e-08 Eh
 1-El. energy change                    ....  1.000e-05 Eh
 Orbital Gradient       TolG            ....  1.000e-05
 Orbital Rotation angle TolX            ....  1.000e-05
 DIIS Error             TolErr          ....  5.000e-07


Diagonalization of the overlap matrix:
Smallest eigenvalue                        ... 9.472e-05
Time for diagonalization                   ...    0.235 sec
Threshold for overlap eigenvalues          ... 1.000e-08
Number of eigenvalues below threshold      ... 0
Time for construction of square roots      ...    0.027 sec
Total time needed                          ...    0.262 sec

-------------------
DFT GRID GENERATION
-------------------

General Integration Accuracy     IntAcc      ...  4.340
Radial Grid Type                 RadialGrid  ... Gauss-Chebyshev
Angular Grid (max. acc.)         AngularGrid ... Lebedev-194
Angular grid pruning method      GridPruning ... 3 (G Style)
Weight generation scheme         WeightScheme... Becke
Basis function cutoff            BFCut       ...    1.0000e-11
Integration weight cutoff        WCut        ...    1.0000e-14
Grids for H and He will be reduced by one unit

# of grid points (after initial pruning)     ...  30772 (   0.0 sec)
# of grid points (after weights+screening)   ...  28820 (   0.1 sec)
nearest neighbour list constructed           ...    0.0 sec
Grid point re-assignment to atoms done       ...    0.0 sec
Grid point division into batches done        ...    0.1 sec
Reduced shell lists constructed in    0.2 sec

Total number of grid points                  ...    28820
Total number of batches                      ...      456
Average number of points per batch           ...       63
Average number of grid points per atom       ...     2402
Average number of shells per batch           ...    57.84 (59.63%)
Average number of basis functions per batch  ...   152.33 (61.67%)
Average number of large shells per batch     ...    43.69 (75.53%)
Average number of large basis fcns per batch ...   112.83 (74.07%)
Maximum spatial batch extension              ...  17.36, 17.36, 14.46 au
Average spatial batch extension              ...   0.47,  0.50,  0.48 au

Time for grid setup =    0.508 sec

--------------
SCF ITERATIONS
--------------
ITER       Energy         Delta-E        Max-DP      RMS-DP      [F,P]     Damp
               ***  Starting incremental Fock matrix formation  ***
                      *** Initiating the SOSCF procedure ***
                      *** Re-Reading the Fockian *** 
                      *** Removing any level shift *** 
ITER      Energy       Delta-E        Grad      Rot      Max-DP    RMS-DP
  0   -339.55820162 -339.5582016248  0.000048  0.000048  0.000028  0.000001
               *** Restarting incremental Fock matrix formation ***
  1   -339.55820167  -0.0000000483  0.000006  0.000019  0.000015  0.000000
  2   -339.55820168  -0.0000000034  0.000011  0.000020  0.000018  0.000000
  3   -339.55820168   0.0000000001  0.000011  0.000011  0.000010  0.000000
                  ***Gradient check signals convergence***
              ***Rediagonalizing the Fockian in SOSCF/NRSCF***

               *****************************************************
               *                     SUCCESS                       *
               *           SCF CONVERGED AFTER   4 CYCLES          *
               *****************************************************

Setting up the final grid:

General Integration Accuracy     IntAcc      ...  5.010
Radial Grid Type                 RadialGrid  ... Gauss-Chebyshev
Angular Grid (max. acc.)         AngularGrid ... Lebedev-434
Angular grid pruning method      GridPruning ... 3 (G Style)
Weight generation scheme         WeightScheme... Becke
Basis function cutoff            BFCut       ...    1.0000e-11
Integration weight cutoff        WCut        ...    1.0000e-14
Grids for H and He will be reduced by one unit

# of grid points (after initial pruning)     ... 108274 (   0.0 sec)
# of grid points (after weights+screening)   ... 100401 (   1.7 sec)
nearest neighbour list constructed           ...    0.0 sec
Grid point re-assignment to atoms done       ...    0.0 sec
Grid point division into batches done        ...    0.9 sec
Reduced shell lists constructed in    1.2 sec

Total number of grid points                  ...   100401
Total number of batches                      ...     1575
Average number of points per batch           ...       63
Average number of grid points per atom       ...     8367
Average number of shells per batch           ...    53.82 (55.49%)
Average number of basis functions per batch  ...   140.47 (56.87%)
Average number of large shells per batch     ...    40.51 (75.27%)
Average number of large basis fcns per batch ...   103.63 (73.77%)
Maximum spatial batch extension              ...  12.36, 13.42, 13.88 au
Average spatial batch extension              ...   0.33,  0.34,  0.32 au

Final grid set up in    3.4 sec
Final integration                            ... done (   0.8 sec)
Change in XC energy                          ...     0.000303687
Integrated number of electrons               ...    50.000001250
Previous integrated no of electrons          ...    50.000101234
Total Energy       :         -339.55789799 Eh           -9239.84015 eV
  Last Energy change         ...   -1.2478e-09  Tolerance :   1.0000e-08
  Last MAX-Density change    ...    3.6081e-06  Tolerance :   1.0000e-07
             **** THE GBW FILE WAS UPDATED (6549_+.gbw) ****
             **** DENSITY FILE WAS UPDATED (6549_+.scfp.tmp) ****
             **** ENERGY FILE WAS UPDATED (6549_+.en.tmp) ****
Total SCF time: 0 days 0 hours 0 min 27 sec 
           ************************************************************
           *              Shut down parallel processing               *
           ************************************************************

-------------------------   --------------------
FINAL SINGLE POINT ENERGY      -339.557897991065
-------------------------   --------------------

                                *** OPTIMIZATION RUN DONE ***

                            ***************************************
                            *     ORCA property calculations      *
                            ***************************************

                                    ---------------------
                                    Active property flags
                                    ---------------------




           ************************************************************
           *        Program running with 8 parallel MPI-processes     *
           *              working on a common directory               *
           ************************************************************

-------------------------------------------------------------------------------
                               ORCA SCF HESSIAN
-------------------------------------------------------------------------------

Hessian of the Kohn-Sham DFT energy:
Kohn-Sham wavefunction type                      ... RKS
Hartree-Fock exchange scaling                    ...    0.250
Number of operators                              ...    1
Number of atoms                                  ...   12
Basis set dimensions                             ...  247
Integral neglect threshold                       ... 2.5e-11
Integral primitive cutoff                        ... 2.5e-12

Setting up DFT Hessian calculations              ... 
Electron density on the grid                     ... found on disk
Electron density on the final grid               ... found on disk
Building xc-kernel on the grid                   ... done   (      0.0 sec)
Building xc-kernel on the final grid             ... done   (      0.0 sec)
                                                     done   (      5.8 sec)

Nuclear repulsion Hessian                        ... done   (      0.0 sec)

----------------------------------------------
Forming right-hand sides of CP-SCF equations     ...
----------------------------------------------
One electron integral derivatives                ... done   (      0.3 sec)
Transforming the overlap derivative matrices     ... done   (      0.4 sec)
Making the Q(x) pseudodensities                  ... done   (      0.2 sec)
Adding the E*S(x)*S(y) terms to the Hessian      ... done   (      0.0 sec)
Calculating energy weighted overlap derivatives  ... done   (      0.0 sec)
Two electron integral derivatives                ... done   (     31.4 sec)
Exchange-correlation integral derivatives        ... done   (     33.3 sec)
tr(F(y)Q(x)) contribution to the Hessian         ... done   (      0.0 sec)
Response fock operator R(S(x))                   ... done   (     78.3 sec)
XC Response fock operator R(S(x))                ... done   (     16.4 sec)
tr(F(y)S(x)) contribution to the Hessian         ... done   (      0.0 sec)
Transforming and finalizing RHSs                 ... done   (      0.0 sec)

----------------------------------------------
Solving the CP-SCF equations                     ...
----------------------------------------------
     CP-SCF ITERATION   0: 
     CP-SCF ITERATION   1:      0.006164651
     CP-SCF ITERATION   2:      0.000519459
     CP-SCF ITERATION   3:      0.000103866
     CP-SCF ITERATION   4:      0.000007255
     CP-SCF ITERATION   5:      0.000000338
     CP-SCF ITERATION   6:      0.000000031
     CP-SCF ITERATION   7:      0.000000009

                                                 ... done   (    787.1 sec)
Forming perturbed density Hessian contributions  ... done   (      0.1 sec)
Making the perturbed densities                   ... done   (      0.0 sec)
2nd integral derivative contribs                 ... done   (    173.5 sec)
Exchange-correlation Hessian                     ... done   (     15.0 sec)
Dipol derivatives                                ... done   (     10.7 sec)

Total SCF Hessian time: 0 days 0 hours 19 min 13 sec 

Writing the Hessian file to the disk             ... done

           ************************************************************
           *              Shut down parallel processing               *
           ************************************************************

-----------------------
VIBRATIONAL FREQUENCIES
-----------------------

   0:         0.00 cm**-1
   1:         0.00 cm**-1
   2:         0.00 cm**-1
   3:         0.00 cm**-1
   4:         0.00 cm**-1
   5:         0.00 cm**-1
   6:        77.39 cm**-1
   7:       128.77 cm**-1
   8:       204.53 cm**-1
   9:       379.63 cm**-1
  10:       423.25 cm**-1
  11:       517.70 cm**-1
  12:       570.59 cm**-1
  13:       706.23 cm**-1
  14:       732.62 cm**-1
  15:       822.25 cm**-1
  16:       869.08 cm**-1
  17:       917.31 cm**-1
  18:      1016.24 cm**-1
  19:      1041.32 cm**-1
  20:      1046.32 cm**-1
  21:      1118.12 cm**-1
  22:      1209.89 cm**-1
  23:      1264.60 cm**-1
  24:      1279.04 cm**-1
  25:      1309.05 cm**-1
  26:      1341.65 cm**-1
  27:      1438.75 cm**-1
  28:      1642.83 cm**-1
  29:      2005.60 cm**-1
  30:      2389.01 cm**-1
  31:      3103.78 cm**-1
  32:      3108.60 cm**-1
  33:      3179.99 cm**-1
  34:      3449.54 cm**-1
  35:      3515.73 cm**-1


------------
NORMAL MODES
------------

These modes are the cartesian displacements weighted by the diagonal matrix
M(i,i)=1/sqrt(m[i]) where m[i] is the mass of the displaced atom
Thus, these vectors are normalized but *not* orthogonal

                  0          1          2          3          4          5    
      0       0.000000   0.000000   0.000000   0.000000   0.000000   0.000000
      1       0.000000   0.000000   0.000000   0.000000   0.000000   0.000000
      2       0.000000   0.000000   0.000000   0.000000   0.000000   0.000000
      3       0.000000   0.000000   0.000000   0.000000   0.000000   0.000000
      4       0.000000   0.000000   0.000000   0.000000   0.000000   0.000000
      5       0.000000   0.000000   0.000000   0.000000   0.000000   0.000000
      6       0.000000   0.000000   0.000000   0.000000   0.000000   0.000000
      7       0.000000   0.000000   0.000000   0.000000   0.000000   0.000000
      8       0.000000   0.000000   0.000000   0.000000   0.000000   0.000000
      9       0.000000   0.000000   0.000000   0.000000   0.000000   0.000000
     10       0.000000   0.000000   0.000000   0.000000   0.000000   0.000000
     11       0.000000   0.000000   0.000000   0.000000   0.000000   0.000000
     12       0.000000   0.000000   0.000000   0.000000   0.000000   0.000000
     13       0.000000   0.000000   0.000000   0.000000   0.000000   0.000000
     14       0.000000   0.000000   0.000000   0.000000   0.000000   0.000000
     15       0.000000   0.000000   0.000000   0.000000   0.000000   0.000000
     16       0.000000   0.000000   0.000000   0.000000   0.000000   0.000000
     17       0.000000   0.000000   0.000000   0.000000   0.000000   0.000000
     18       0.000000   0.000000   0.000000   0.000000   0.000000   0.000000
     19       0.000000   0.000000   0.000000   0.000000   0.000000   0.000000
     20       0.000000   0.000000   0.000000   0.000000   0.000000   0.000000
     21       0.000000   0.000000   0.000000   0.000000   0.000000   0.000000
     22       0.000000   0.000000   0.000000   0.000000   0.000000   0.000000
     23       0.000000   0.000000   0.000000   0.000000   0.000000   0.000000
     24       0.000000   0.000000   0.000000   0.000000   0.000000   0.000000
     25       0.000000   0.000000   0.000000   0.000000   0.000000   0.000000
     26       0.000000   0.000000   0.000000   0.000000   0.000000   0.000000
     27       0.000000   0.000000   0.000000   0.000000   0.000000   0.000000
     28       0.000000   0.000000   0.000000   0.000000   0.000000   0.000000
     29       0.000000   0.000000   0.000000   0.000000   0.000000   0.000000
     30       0.000000   0.000000   0.000000   0.000000   0.000000   0.000000
     31       0.000000   0.000000   0.000000   0.000000   0.000000   0.000000
     32       0.000000   0.000000   0.000000   0.000000   0.000000   0.000000
     33       0.000000   0.000000   0.000000   0.000000   0.000000   0.000000
     34       0.000000   0.000000   0.000000   0.000000   0.000000   0.000000
     35       0.000000   0.000000   0.000000   0.000000   0.000000   0.000000
                  6          7          8          9         10         11    
      0      -0.050951  -0.354462   0.045913  -0.259168   0.073041   0.015128
      1       0.096596   0.110624  -0.095820  -0.065613   0.196446   0.018908
      2      -0.029934  -0.252879   0.010877  -0.181078   0.036815  -0.082213
      3       0.020770  -0.068258  -0.009076   0.145071   0.082796   0.090356
      4       0.001444  -0.042494   0.069203  -0.135159  -0.273395  -0.055103
      5       0.000385  -0.136283  -0.014037  -0.023651   0.049747  -0.043625
      6       0.143694  -0.011473   0.043701   0.113615  -0.078885   0.106850
      7      -0.195242   0.034766   0.022122   0.038574  -0.042871   0.006882
      8       0.066230   0.025394   0.046934  -0.097656   0.066953   0.085599
      9      -0.005410   0.198293   0.178140  -0.026834   0.001845   0.171245
     10       0.131879  -0.049362  -0.127484  -0.014175   0.032205   0.028208
     11      -0.002291  -0.035596   0.045207  -0.056648   0.022957   0.035552
     12       0.009039   0.174886  -0.038787   0.041748  -0.013147  -0.049083
     13       0.081497  -0.137416   0.186306   0.067508  -0.103355   0.085518
     14      -0.029809  -0.159694  -0.052218   0.145959  -0.104509  -0.025865
     15      -0.030041   0.134003  -0.005387  -0.010733   0.016352  -0.345459
     16      -0.011909  -0.054637   0.224546   0.319015   0.124023  -0.293363
     17      -0.014674   0.017545  -0.114693   0.522599  -0.036541   0.131689
     18      -0.089752  -0.035612  -0.250697   0.090381  -0.059296  -0.072705
     19      -0.125765   0.100651  -0.176247  -0.174058  -0.032184   0.145434
     20       0.007918   0.546486   0.037421  -0.160919  -0.028475  -0.096359
     21       0.466853  -0.092319  -0.055220  -0.144331  -0.586556  -0.298320
     22      -0.231400   0.043249   0.034612   0.068034   0.015257   0.055055
     23       0.237421   0.010401  -0.074609  -0.117021   0.243711   0.140554
     24       0.001944  -0.012335   0.061848   0.282555   0.163020   0.273354
     25      -0.521391   0.109239   0.144665   0.255099   0.350154   0.334037
     26      -0.020486   0.154493   0.189756  -0.290292  -0.070636   0.081557
     27      -0.098655   0.314625   0.145750  -0.108149   0.068137   0.122626
     28       0.214716  -0.019248  -0.360983  -0.102435   0.088495  -0.155849
     29      -0.236767   0.071213   0.329366  -0.037114   0.029579   0.230237
     30      -0.032650   0.233642   0.480075  -0.047197   0.017399   0.456597
     31       0.314200  -0.088932  -0.229066  -0.071286   0.054033   0.005918
     32       0.209542  -0.092401  -0.178369  -0.112304   0.042212  -0.094514
     33       0.084107   0.191255  -0.239158  -0.204364  -0.107777   0.187709
     34       0.085796  -0.132326   0.168443   0.052855  -0.103977   0.099033
     35      -0.056503  -0.214126   0.009902  -0.066790  -0.462363   0.030895
                 12         13         14         15         16         17    
      0       0.139374   0.083879   0.075738  -0.006531   0.012403  -0.018400
      1       0.022661  -0.019390   0.012129  -0.012051  -0.002519   0.006959
      2      -0.031779  -0.253814  -0.089281   0.044002   0.030025   0.006533
      3      -0.134252   0.105493  -0.070914  -0.054156  -0.054144   0.092684
      4       0.060240   0.024935  -0.016652   0.064980   0.068379  -0.039071
      5      -0.136517  -0.185949  -0.135991   0.007697   0.009422   0.032436
      6      -0.160516   0.092323  -0.109493   0.012046   0.142504   0.028273
      7       0.005407   0.098383  -0.150735  -0.056227   0.061894   0.129191
      8       0.090654   0.116284   0.105638  -0.012389   0.152860   0.267530
      9       0.082919  -0.082331  -0.069507   0.111484  -0.206288  -0.029501
     10       0.016689  -0.036180  -0.009728  -0.037098  -0.160065  -0.081606
     11      -0.013402   0.251912  -0.042094  -0.055832   0.069663  -0.300932
     12       0.008400  -0.081112  -0.009279   0.000262   0.159111   0.056538
     13      -0.098892  -0.159703   0.222673  -0.051910   0.061032  -0.025456
     14      -0.091993   0.138876   0.064113   0.009626  -0.311435   0.083505
     15      -0.045783   0.000610   0.095872  -0.023456  -0.030664  -0.026364
     16       0.064864   0.061200  -0.040483   0.031917  -0.015155   0.015637
     17       0.215896  -0.095050   0.010963   0.023883   0.078921  -0.048545
     18       0.032330  -0.073720   0.110116  -0.027677   0.022220  -0.062428
     19      -0.032801   0.015171  -0.038514   0.005522  -0.003534   0.025519
     20      -0.043518  -0.009811   0.057930  -0.017442  -0.011451  -0.020833
     21       0.318291   0.059963  -0.633779  -0.291532   0.002248   0.178562
     22      -0.052455   0.102894  -0.092770  -0.021006   0.084976   0.119674
     23       0.151483   0.088180   0.219154  -0.218635  -0.304180   0.464659
     24      -0.471896   0.052017   0.080117   0.121232   0.222222  -0.087066
     25      -0.423252   0.075343   0.234793   0.283632   0.228005  -0.130367
     26       0.398417   0.213452   0.108964   0.194752   0.192101   0.239914
     27       0.205185  -0.034605  -0.227859   0.074215  -0.432112   0.043280
     28       0.055779   0.249122  -0.137264   0.285154  -0.171475  -0.033478
     29       0.087729  -0.082679  -0.063398  -0.566302  -0.206072  -0.288929
     30       0.132648  -0.423811   0.067600  -0.166890  -0.158166  -0.313880
     31       0.004171   0.049420   0.075765   0.272287   0.005238  -0.205468
     32      -0.046466   0.479396   0.001676   0.393685   0.235896  -0.340233
     33      -0.040048  -0.214312   0.065354  -0.019785   0.143340  -0.052263
     34      -0.096786  -0.172760   0.220936  -0.056098   0.067640  -0.038280
     35      -0.225719   0.273867   0.397714   0.172939  -0.366354   0.301225
                 18         19         20         21         22         23    
      0       0.027673   0.039272  -0.015112  -0.006961   0.008007   0.008004
      1      -0.005386   0.059759  -0.002784   0.001480  -0.009573   0.001425
      2       0.043909   0.035427  -0.017863   0.004724  -0.003289  -0.015884
      3      -0.232899  -0.246212   0.095892   0.030945  -0.044623   0.001848
      4       0.050522  -0.345956   0.008038   0.001932   0.059079  -0.004804
      5      -0.069835  -0.089688   0.034256   0.021251  -0.026960  -0.006547
      6       0.251426   0.076004  -0.008221  -0.012444   0.007040  -0.022935
      7       0.013101   0.174223   0.038752   0.029035  -0.030846  -0.054756
      8       0.073964  -0.044239   0.020396  -0.003922  -0.006991   0.099610
      9      -0.006426   0.079947   0.009501   0.024920   0.027908  -0.054452
     10       0.102030  -0.034830  -0.001865  -0.055304  -0.029422   0.017290
     11      -0.071016   0.027682  -0.042011   0.021443   0.007950  -0.039194
     12      -0.191506   0.029182  -0.160240  -0.073268   0.072876   0.021407
     13      -0.144852   0.148912   0.027074   0.084414   0.045229   0.009968
     14      -0.006925   0.100503   0.020684  -0.118368   0.117096   0.041467
     15       0.052149  -0.005889   0.036671   0.005424  -0.016369  -0.003085
     16       0.012836  -0.035909  -0.053892  -0.049705  -0.028832  -0.007881
     17       0.015623  -0.020190  -0.012210   0.027217  -0.015001  -0.008425
     18       0.063761   0.005038   0.069121   0.057361  -0.016231  -0.004497
     19      -0.033920   0.005825  -0.023708  -0.017876   0.012061   0.003424
     20       0.030167   0.007725   0.035223   0.022055  -0.005317  -0.000934
     21      -0.108407   0.509553   0.087766   0.035951  -0.146271   0.165841
     22       0.060607   0.127032   0.029171   0.026815  -0.015999  -0.079792
     23       0.231035  -0.440017  -0.215472   0.260420   0.216920  -0.703986
     24       0.500995  -0.100988  -0.143307   0.016381   0.052592   0.147775
     25       0.262636  -0.113914   0.023006  -0.089760  -0.006623   0.146135
     26      -0.297263   0.047657   0.444827  -0.304310  -0.123525  -0.087692
     27      -0.062680  -0.155120  -0.256813   0.410882   0.071626   0.462878
     28      -0.130800  -0.019433  -0.137363   0.325696   0.046789   0.278318
     29       0.189228  -0.301191  -0.195470  -0.028734  -0.041671   0.266471
     30       0.150529  -0.183505   0.256651  -0.297456  -0.390457   0.072657
     31      -0.079381   0.026926   0.227372  -0.095978  -0.211242   0.029202
     32      -0.339432   0.200750   0.122090   0.096113  -0.035009  -0.072742
     33      -0.276596  -0.123605  -0.369202  -0.610682  -0.102340  -0.124101
     34      -0.159086   0.133740   0.019378   0.044065   0.048441   0.000523
     35      -0.065724   0.077354  -0.530323   0.176716  -0.813070  -0.094947
                 24         25         26         27         28         29    
      0       0.006737  -0.001669  -0.000021  -0.000385  -0.000714  -0.204426
      1      -0.003061   0.002355   0.001025  -0.000499   0.000049   0.007435
      2      -0.011529   0.013386  -0.009232  -0.001657   0.001825   0.508849
      3      -0.005542  -0.031087   0.020700   0.007981   0.000785   0.325785
      4       0.022290  -0.021183  -0.009717   0.003699  -0.000407   0.000663
      5      -0.007406  -0.009575   0.011510   0.004739  -0.001147  -0.757929
      6      -0.068126   0.086567  -0.012351   0.052692   0.010125  -0.017785
      7       0.046235   0.035306   0.002483   0.036879   0.006349  -0.001701
      8       0.060029  -0.077981   0.030463   0.046714  -0.002937   0.033089
      9       0.009099  -0.099328   0.039512   0.018214   0.022561  -0.017254
     10      -0.070405  -0.081668  -0.030030   0.008042   0.002181   0.000495
     11      -0.012444  -0.029105   0.006665   0.005604  -0.067805   0.047704
     12      -0.011538  -0.017626  -0.175086  -0.019458  -0.005618  -0.024539
     13      -0.011115   0.022241   0.032391  -0.003166  -0.001807  -0.004512
     14       0.032021   0.035333  -0.034124  -0.003318  -0.009228   0.002253
     15       0.001940   0.003901   0.020030   0.002013   0.001144  -0.014676
     16       0.005356   0.008389   0.025050   0.002698   0.001469   0.004432
     17      -0.003454  -0.001626   0.010676   0.000420   0.000987  -0.014838
     18      -0.001806   0.002943   0.031186   0.002488  -0.000114   0.016737
     19       0.000227  -0.002113  -0.017795  -0.001660  -0.000593  -0.006356
     20      -0.000554   0.001287   0.013674   0.001172  -0.000077   0.009593
     21       0.172288  -0.175549   0.159179  -0.601859  -0.040468   0.030268
     22       0.029727   0.064633  -0.012918   0.092235   0.012014  -0.000237
     23       0.118502   0.317011  -0.087490  -0.346104  -0.006435  -0.067558
     24       0.119542  -0.105941   0.052859  -0.232533  -0.014940   0.019726
     25      -0.032680  -0.102312   0.083787  -0.628250  -0.040788  -0.000677
     26      -0.712629   0.318352  -0.028341  -0.208904  -0.004194  -0.052122
     27      -0.071311   0.508059   0.130257  -0.018465   0.048871  -0.020971
     28      -0.038650   0.344466   0.096731   0.016494  -0.394237   0.011963
     29      -0.160480   0.146380  -0.056363  -0.051022   0.573548   0.037602
     30       0.407909   0.376393  -0.382332  -0.001503  -0.392034  -0.002725
     31       0.313969   0.238272  -0.239279  -0.041730   0.333252  -0.019122
     32       0.277462   0.150092  -0.061974  -0.038574   0.488689   0.024985
     33       0.155475   0.265337   0.806078   0.057716   0.021302   0.022795
     34       0.003514   0.048515   0.121730   0.002542   0.000149  -0.015177
     35      -0.126674  -0.116085  -0.122662  -0.001810   0.009570  -0.028649
                 30         31         32         33         34         35    
      0      -0.003971   0.000028  -0.000282  -0.000035  -0.000099  -0.000007
      1       0.000610   0.000034  -0.000022   0.000098   0.000004  -0.000013
      2       0.011705  -0.000344   0.000855  -0.000050   0.000210   0.000034
      3       0.000983   0.000335   0.000016  -0.000069  -0.000182   0.000035
      4      -0.002768   0.000244  -0.000126  -0.000071   0.000054  -0.000156
      5      -0.023470   0.000950  -0.000934   0.000109   0.000650   0.000276
      6       0.002841   0.021437   0.054425  -0.042845   0.000251   0.000466
      7       0.002127   0.011514   0.028660   0.086205   0.000273  -0.000688
      8       0.002355   0.006254   0.015438  -0.015146  -0.000122   0.000209
      9      -0.008017   0.000051  -0.001191   0.001303   0.011274   0.045325
     10      -0.003215  -0.002019   0.000125  -0.002394   0.013122  -0.069711
     11       0.002186  -0.000037  -0.000863   0.000411  -0.056197   0.001276
     12      -0.095363  -0.006967   0.001947  -0.000431   0.000371  -0.000272
     13       0.039168   0.077518  -0.031465   0.000805  -0.000182  -0.000456
     14      -0.037750  -0.000296  -0.000619  -0.000189  -0.000301  -0.000052
     15       0.682700   0.000012   0.000117  -0.000091   0.000072  -0.000363
     16      -0.290373   0.000384  -0.000172  -0.000064  -0.000202   0.000080
     17       0.304696   0.000454  -0.000156  -0.000072   0.000218  -0.000001
     18      -0.492664   0.000616  -0.000283   0.000019  -0.000089   0.000077
     19       0.214303  -0.000107   0.000055   0.000003   0.000104  -0.000061
     20      -0.222141   0.000234  -0.000105   0.000012  -0.000112   0.000034
     21       0.005460  -0.020760  -0.055279  -0.081873   0.000774   0.001400
     22       0.003703  -0.256393  -0.638148  -0.716680  -0.005493   0.011286
     23      -0.003298   0.002623   0.005537   0.006731   0.003640   0.001304
     24       0.007206  -0.234119  -0.568224   0.590514   0.000160  -0.011110
     25       0.001118   0.127017   0.311174  -0.302255   0.002235   0.005221
     26      -0.005384  -0.070113  -0.172596   0.172431   0.004443  -0.004279
     27       0.003203  -0.000925   0.003607  -0.009882  -0.359685  -0.477109
     28       0.012256   0.007592  -0.005342   0.005132   0.404586   0.526637
     29      -0.003505   0.002992  -0.002473   0.001088   0.262041   0.365609
     30       0.008510  -0.006573   0.001633  -0.000295   0.202889  -0.142600
     31       0.002623   0.001692   0.000850   0.012993  -0.585405   0.429498
     32      -0.004873  -0.003149  -0.000677  -0.003885   0.500855  -0.386256
     33      -0.048060   0.076108  -0.030085   0.001278  -0.004099   0.000240
     34       0.038286  -0.919267   0.366284  -0.002708   0.000902   0.011655
     35      -0.041501  -0.017348   0.006505   0.000839   0.002861  -0.000261


-----------
IR SPECTRUM
-----------

 Mode    freq (cm**-1)   T**2         TX         TY         TZ
-------------------------------------------------------------------
   6:        77.39    3.205652  (  1.362465   1.148949   0.171048)
   7:       128.77    9.904125  (  2.608925  -1.063822  -1.402113)
   8:       204.53    5.643051  (  2.178211   0.941983  -0.105427)
   9:       379.63    0.205624  (  0.157162   0.353241  -0.236949)
  10:       423.25    1.260836  ( -0.599420  -0.919671  -0.236088)
  11:       517.70    1.532209  (  1.154859   0.042522   0.443511)
  12:       570.59    2.813536  ( -0.951051  -0.979179  -0.974806)
  13:       706.23    7.501365  ( -1.591347   0.354820   2.200701)
  14:       732.62    4.391434  ( -1.605148   0.478755  -1.259257)
  15:       822.25    9.800657  ( -2.206784   2.114029  -0.679443)
  16:       869.08   20.724093  (  3.822723   2.223283   1.080690)
  17:       917.31   11.922016  (  2.144129   0.357143   2.682755)
  18:      1016.24   25.855483  ( -4.621926  -2.091290   0.346112)
  19:      1041.32   81.062472  ( -7.420325  -3.193122  -3.975579)
  20:      1046.32    3.674429  ( -0.573087   1.550433   0.970647)
  21:      1118.12    6.885405  (  0.512503   2.367499   1.008809)
  22:      1209.89   23.216803  ( -3.312209  -0.907169  -3.379811)
  23:      1264.60   22.768644  (  4.529689   1.497866  -0.083423)
  24:      1279.04   17.517454  (  2.885492   2.986965  -0.519069)
  25:      1309.05   17.991965  (  2.877482   2.738722   1.487099)
  26:      1341.65    6.661338  ( -2.282486   1.197471   0.132883)
  27:      1438.75   25.972435  ( -4.566843  -2.261759  -0.028726)
  28:      1642.83   69.216911  ( -3.339060  -0.944387   7.561463)
  29:      2005.60  230.821413  (  3.034365   0.156811 -14.885881)
  30:      2389.01   10.404190  ( -2.943347   1.166308  -0.616947)
  31:      3103.78   29.441960  ( -2.443922  -4.631056  -1.422155)
  32:      3108.60   10.548819  ( -3.223636  -0.165614   0.359946)
  33:      3179.99   12.570485  (  1.453096  -3.189732   0.533484)
  34:      3449.54  104.162040  ( -3.480760  -1.638708   9.453094)
  35:      3515.73  124.824458  ( -6.222503   9.279184   0.040817)

The first frequency considered to be a vibration is 6
The total number of vibrations considered is 30


--------------------------
THERMOCHEMISTRY AT 298.15K
--------------------------

Temperature         ... 298.15 K
Pressure            ... 1.00 atm
Total Mass          ... 97.10 AMU

Throughout the following assumptions are being made:
  (1) The electronic state is orbitally nondegenerate
  (2) There are no thermally accessible electronically excited states
  (3) Hindered rotations indicated by low frequency modes) are not
      treated as such but are treated as vibrations and this may
      case some error
  (4) All equations used are the standard statistical mechanics
      equations for an ideal gas
  (5) All vibrations are strinctly harmonic


------------
INNER ENERGY
------------

The inner energy is: U= E(el) + E(ZPE) + E(vib) + E(rot) + E(trans)
    E(el)   - is the total energy from the electronic structure calculation
              = E(kin-el) + E(nuc-el) + E(el-el) + E(nuc-nuc)
    E(ZPE)  - the the zero temperature vibrational energy from the frequency calculation
    E(vib)  - the the finite temperature correction to E(ZPE) due to population
              of excietd vibrational states
    E(rot)  - is the rotational thermal energy
    E(trans)- is the translational thermal energy

Summary of contributions to the inner energy U:
Electronic energy                ...   -339.55789799 Eh
Zero point energy                ...      0.09297067 Eh      58.34 kcal/mol
Thermal vibrational correction   ...      0.00360404 Eh       2.26 kcal/mol
Thermal rotational correction    ...      0.00141627 Eh       0.89 kcal/mol
Thermal translational correction ...      0.00141627 Eh       0.89 kcal/mol
-----------------------------------------------------------------------
Total thermal energy                   -339.45849073 Eh


Summary of corrections to the electronic energy:
(perhaps to be used in another calculation)
Total thermal correction                  0.00643659 Eh       4.04 kcal/mol
Non-thermal (ZPE) correction              0.09297067 Eh      58.34 kcal/mol
-----------------------------------------------------------------------
Total correction                          0.09940726 Eh      62.38 kcal/mol


--------
ENTHALPY
--------

The enthalpy is H = U + kB*T
                kB is Boltzmann's constant
Total free energy                 ...   -339.45849073 Eh 
Thermal Enthalpy correction       ...      0.00094421 Eh       0.59 kcal/mol
-----------------------------------------------------------------------
Total Enthalpy                    ...   -339.45754652 Eh


-------
ENTROPY
-------

The entropy contributions are T*S = T*(S(el)+S(vib)+S(rot)+S(trans)
     S(el)   - electronic entropy
     S(vib)  - vibrational entropy
     S(rot)  - rotational entropy
     S(trans)- translational entropy
The entropies will be listed as mutliplied by the temperature to get
units of energy

Electronic entropy                ...      0.00000000 Eh      0.00 kcal/mol
Vibrational entropy               ...      0.00645001 Eh      4.05 kcal/mol
Rotational entropy                ...      0.01195581 Eh      7.50 kcal/mol
Translational entropy             ...      0.01882952 Eh     11.82 kcal/mol
-----------------------------------------------------------------------
Final entropy term                ...      0.03723534 Eh     23.37 kcal/mol


CAUTION: The rotational entropy is not quite correctly treated here
         because it includes a symmetry number that is not yet correctly
         implemented in ORCA!
For a nonlinear molecule the correct rotational entropy is:
    S(rot) = R*(ln(qrot/sn)+1.5)
    R    = 8.31441 J/mol/K = 1.987191683e-3 kcal/mol/K
    qrot = 211343.5781220
    sn is the rotational symmetry number. We have assumed 3 here
       if it is different for your molecule then you should correct
       the printed rotational entropy by manually evaluating the equation
       as given above

For convenience we print out the resulting values for sn=1 - 12:
 sn= 1  qrot/sn=  211343.5781 T*S(rot)=     8.15 kcal/mol T*S(tot)=    24.02 kcal/mol
 sn= 2  qrot/sn=  105671.7891 T*S(rot)=     7.74 kcal/mol T*S(tot)=    23.61 kcal/mol
 sn= 3  qrot/sn=   70447.8594 T*S(rot)=     7.50 kcal/mol T*S(tot)=    23.37 kcal/mol
 sn= 4  qrot/sn=   52835.8945 T*S(rot)=     7.33 kcal/mol T*S(tot)=    23.20 kcal/mol
 sn= 5  qrot/sn=   42268.7156 T*S(rot)=     7.20 kcal/mol T*S(tot)=    23.06 kcal/mol
 sn= 6  qrot/sn=   35223.9297 T*S(rot)=     7.09 kcal/mol T*S(tot)=    22.95 kcal/mol
 sn= 7  qrot/sn=   30191.9397 T*S(rot)=     7.00 kcal/mol T*S(tot)=    22.86 kcal/mol
 sn= 8  qrot/sn=   26417.9473 T*S(rot)=     6.92 kcal/mol T*S(tot)=    22.78 kcal/mol
 sn= 9  qrot/sn=   23482.6198 T*S(rot)=     6.85 kcal/mol T*S(tot)=    22.71 kcal/mol
 sn=10  qrot/sn=   21134.3578 T*S(rot)=     6.79 kcal/mol T*S(tot)=    22.65 kcal/mol
 sn=11  qrot/sn=   19213.0526 T*S(rot)=     6.73 kcal/mol T*S(tot)=    22.60 kcal/mol
 sn=12  qrot/sn=   17611.9648 T*S(rot)=     6.68 kcal/mol T*S(tot)=    22.54 kcal/mol


-------------------
GIBBS FREE ENTHALPY
-------------------

The Gibbs free enthalpy is G = H - T*S

Total enthalpy                    ...   -339.45754652 Eh 
Total entropy correction          ...     -0.03723534 Eh    -23.37 kcal/mol
-----------------------------------------------------------------------
Final Gibbs free enthalpy         ...   -339.49478186 Eh

For completeness - the Gibbs free enthalpy minus the electronic energy
G-E(el)                           ...      0.06311613 Eh     39.61 kcal/mol


Timings for individual modules:

Sum of individual times         ...     1350.154 sec (=  22.503 min)
GTO integral calculation        ...        6.309 sec (=   0.105 min)   0.5 %
SCF iterations                  ...      137.448 sec (=   2.291 min)  10.2 %
SCF Gradient evaluation         ...       51.075 sec (=   0.851 min)   3.8 %
Geometry relaxation             ...        0.096 sec (=   0.002 min)   0.0 %
Analytical frequency calculation...     1155.226 sec (=  19.254 min)  85.6 %
                             ****ORCA TERMINATED NORMALLY****
TOTAL RUN TIME: 0 days 0 hours 22 minutes 31 seconds 695 msec
