
                                 *****************
                                 * O   R   C   A *
                                 *****************

           --- An Ab Initio, DFT and Semiempirical electronic structure package ---

                  #######################################################
                  #                        -***-                        #
                  #  Department of molecular theory and spectroscopy    #
                  #              Directorship: Frank Neese              #
                  # Max Planck Institute for Chemical Energy Conversion #
                  #                  D-45470 Muelheim/Ruhr              #
                  #                       Germany                       #
                  #                                                     #
                  #                  All rights reserved                #
                  #                        -***-                        #
                  #######################################################


                         Program Version 3.0.3 - RELEASE   -


 With contributions from (in alphabetic order):
   Ute Becker             : Parallelization
   Dmytro Bykov           : SCF Hessian
   Dmitry Ganyushin       : Spin-Orbit,Spin-Spin,Magnetic field MRCI
   Andreas Hansen         : Spin unrestricted coupled pair/coupled cluster methods
   Dimitrios Liakos       : Extrapolation schemes; parallel MDCI
   Robert Izsak           : Overlap fitted RIJCOSX, COSX-SCS-MP3
   Christian Kollmar      : KDIIS, OOCD, Brueckner-CCSD(T), CCSD density
   Simone Kossmann        : Meta GGA functionals, TD-DFT gradient, OOMP2, MP2 Hessian
   Taras Petrenko         : DFT Hessian,TD-DFT gradient, ASA and ECA modules, normal mode analysis, Resonance Raman, ABS, FL, XAS/XES, NRVS
   Christoph Reimann      : Effective Core Potentials
   Michael Roemelt        : Restricted open shell CIS
   Christoph Riplinger    : Improved optimizer, TS searches, QM/MM, DLPNO-CCSD
   Barbara Sandhoefer     : DKH picture change effects
   Igor Schapiro          : Molecular dynamics
   Kantharuban Sivalingam : CASSCF convergence, NEVPT2
   Boris Wezisla          : Elementary symmetry handling
   Frank Wennmohs         : Technical directorship


 We gratefully acknowledge several colleagues who have allowed us to
 interface, adapt or use parts of their codes:
   Stefan Grimme, W. Hujo, H. Kruse, T. Risthaus : VdW corrections, initial TS optimization,
                                                   DFT functionals, gCP
   Ed Valeev                                     : LibInt (2-el integral package), F12 methods
   Garnet Chan, S. Sharma, R. Olivares           : DMRG
   Ulf Ekstrom                                   : XCFun DFT Library
   Mihaly Kallay                                 : mrcc  (arbitrary order and MRCC methods)
   Andreas Klamt, Michael Diedenhofen            : otool_cosmo (COSMO solvation model)
   Frank Weinhold                                : gennbo (NPA and NBO analysis)
   Christopher J. Cramer and Donald G. Truhlar   : smd solvation model


 Your calculation uses the libint2 library for the computation of 2-el integrals
 For citations please refer to: http://libint.valeyev.net

 This ORCA versions uses:
   CBLAS   interface :  Fast vector & matrix operations
   LAPACKE interface :  Fast linear algebra routines
   SCALAPACK package :  Parallel linear algebra routines


Your calculation utilizes the basis: Ahlrichs-TZV
Cite in your paper:
H - Kr: A. Schaefer, H. Horn and R. Ahlrichs, J. Chem. Phys. 97, 2571 (1992).

The def2-TZV basis will be loaded
Cite in your paper:
 	F. Weigend, R. Ahlrichs, Phys. Chem. Chem. Phys. 2005, 7, 3297.

================================================================================
                                        WARNINGS
                       Please study these warnings very carefully!
================================================================================
Now building the actual basis set
WARNING: Geometry optimizations can change the point-group symmetry!

WARNING: Geometry Optimization
  ===> : Switching off AutoStart
         For restart on a previous wavefunction, please use MOREAD


INFO   : the flag for use of LIBINT has been found!

================================================================================
                                       INPUT FILE
================================================================================
NAME = 6742_+.inp
|  1> ! NORI PBE0 def2-TZVP UseSym TightOPT Freq TightSCF Grid3 FinalGrid5 XYZFile
|  2> % pal
|  3>     nprocs 8
|  4> end
|  5> %method
|  6>     SymThresh 5.0e-2
|  7> end
|  8> % geom 
|  9>     MaxIter 10
| 10> end 
| 11> % maxcore 2000
| 12> % output
| 13>     printlevel mini
| 14>     print[ P_Basis ] 0
| 15>     print[ P_SCFInfo ] 1
| 16>     print[ P_SCFIterInfo ] 1
| 17>     print[ P_OrbEn ] 0
| 18>     print[ P_Cartesian ] 0
| 19> end
| 20> % elprop
| 21>     Dipole false
| 22> end
| 23> *xyz 1 1
| 24>  O        2.9613805294    -0.2662620995    -0.1309221871 
| 25>  C        1.8662165895     0.4958151673    -0.5852441422 
| 26>  C        2.4797185940     1.6581234616    -1.3316375036 
| 27>  N        3.5332720103     2.2742255762    -0.4656482623 
| 28>  C        4.4232781816     3.2252458772    -1.1513503535 
| 29>  C        3.9921858315     4.6450820295    -1.2695094251 
| 30>  C        5.1101006442     4.2705264758    -0.3434391815 
| 31>  H        2.6661532769    -1.0730344585     0.3002246591 
| 32>  H        1.2226927929    -0.0601384983    -1.2747772511 
| 33>  H        1.2453712305     0.8477836726     0.2498260247 
| 34>  H        1.7525984706     2.4235614785    -1.5982113587 
| 35>  H        2.9885739465     1.3114149583    -2.2314897713 
| 36>  H        4.0650889380     1.4860762977    -0.0719604987 
| 37>  H        3.0920430043     2.7386813360     0.3308423940 
| 38>  H        4.9438258639     2.7449484297    -1.9699187222 
| 39>  H        3.0484947977     4.9361211869    -0.8213366292 
| 40>  H        4.2206102635     5.1583964951    -2.1939778494 
| 41>  H        4.9153018363     4.3123271441     0.7227990245 
| 42>  H        6.1277631982     4.5146354698    -0.6173689663 
| 43> *
| 44> 
| 45>                          ****END OF INPUT****
================================================================================

The point group is C1 - hence turning off symmetry
If this is a round-off problem, please increase the symmetry
        detection tolerance (%method SymThresh)


                       *****************************
                       * Geometry Optimization Run *
                       *****************************

Geometry optimization settings:
Update method            Update   .... BFGS
Choice of coordinates    CoordSys .... Redundant Internals
Initial Hessian          InHess   .... Almoef's Model

Convergence Tolerances:
Energy Change            TolE     ....  1.0000e-06 Eh
Max. Gradient            TolMAXG  ....  1.0000e-04 Eh/bohr
RMS Gradient             TolRMSG  ....  3.0000e-05 Eh/bohr
Max. Displacement        TolMAXD  ....  1.0000e-03 bohr
RMS Displacement         TolRMSD  ....  6.0000e-04 bohr

------------------------------------------------------------------------------
                        ORCA OPTIMIZATION COORDINATE SETUP
------------------------------------------------------------------------------

The optimization will be done in new redundant internal coordinates
Making redundant internal coordinates   ...  (new redundants) done
Evaluating the initial hessian          ...  (Almloef) done
Evaluating the coordinates              ...  done
Calculating the B-matrix                .... done
Calculating the G-matrix                .... done
Diagonalizing the G-matrix              .... done
Small eigenvalue found = 2.146e-02
The first mode is                       ....   59
The number of degrees of freedom        ....   51

    -----------------------------------------------------------------
                    Redundant Internal Coordinates


    -----------------------------------------------------------------
         Definition                    Initial Value    Approx d2E/dq
    -----------------------------------------------------------------
      1. B(C   1,O   0)                  1.4095         0.521004   
      2. B(C   2,C   1)                  1.5114         0.399936   
      3. B(N   3,C   2)                  1.4965         0.378418   
      4. B(C   4,N   3)                  1.4720         0.414071   
      5. B(C   5,C   4)                  1.4885         0.435043   
      6. B(C   6,C   5)                  1.4992         0.418312   
      7. B(C   6,C   4)                  1.4890         0.434335   
      8. B(H   7,O   0)                  0.9612         0.517646   
      9. B(H   8,C   1)                  1.0948         0.353761   
     10. B(H   9,C   1)                  1.0985         0.349046   
     11. B(H  10,C   2)                  1.0889         0.361584   
     12. B(H  11,C   2)                  1.0904         0.359630   
     13. B(H  12,N   3)                  1.0291         0.403422   
     14. B(H  13,N   3)                  1.0222         0.413812   
     15. B(H  14,C   4)                  1.0825         0.370220   
     16. B(H  15,C   5)                  1.0845         0.367465   
     17. B(H  16,C   5)                  1.0818         0.371100   
     18. B(H  17,C   6)                  1.0847         0.367190   
     19. B(H  18,C   6)                  1.0818         0.371130   
     20. A(C   1,O   0,H   7)          111.0847         0.358990   
     21. A(C   2,C   1,H   9)          111.0033         0.326298   
     22. A(H   8,C   1,H   9)          108.0158         0.288616   
     23. A(O   0,C   1,H   8)          112.6540         0.339622   
     24. A(C   2,C   1,H   8)          108.5461         0.327020   
     25. A(O   0,C   1,C   2)          105.0452         0.386933   
     26. A(O   0,C   1,H   9)          111.5526         0.338863   
     27. A(C   1,C   2,H  10)          112.9810         0.328201   
     28. A(H  10,C   2,H  11)          109.4584         0.290968   
     29. A(C   1,C   2,N   3)          108.4570         0.366132   
     30. A(C   1,C   2,H  11)          110.6375         0.327908   
     31. A(N   3,C   2,H  10)          108.8070         0.323282   
     32. A(N   3,C   2,H  11)          106.2560         0.322995   
     33. A(C   2,N   3,C   4)          114.9665         0.366021   
     34. A(C   4,N   3,H  13)          109.2941         0.332647   
     35. A(H  12,N   3,H  13)          105.8419         0.297765   
     36. A(C   2,N   3,H  13)          109.5175         0.327732   
     37. A(C   4,N   3,H  12)          111.1349         0.331248   
     38. A(C   2,N   3,H  12)          105.6583         0.326362   
     39. A(C   5,C   4,H  14)          120.1640         0.334106   
     40. A(N   3,C   4,H  14)          110.8769         0.329386   
     41. A(C   5,C   4,C   6)           60.4651         0.382828   
     42. A(C   6,C   4,H  14)          119.9990         0.334016   
     43. A(N   3,C   4,C   6)          118.6655         0.377170   
     44. A(N   3,C   4,C   5)          118.5636         0.377276   
     45. A(C   4,C   5,H  16)          117.3407         0.334238   
     46. A(C   6,C   5,H  15)          117.4281         0.331530   
     47. A(C   4,C   5,H  15)          118.3714         0.333692   
     48. A(C   4,C   5,C   6)           59.7821         0.380339   
     49. A(C   6,C   5,H  16)          119.2724         0.332071   
     50. A(H  15,C   5,H  16)          114.1766         0.293152   
     51. A(H  17,C   6,H  18)          114.1520         0.293121   
     52. A(C   5,C   6,H  18)          119.2537         0.332075   
     53. A(C   4,C   6,H  18)          117.0613         0.334152   
     54. A(C   5,C   6,H  17)          117.6232         0.331489   
     55. A(C   4,C   6,H  17)          118.5273         0.333561   
     56. A(C   4,C   6,C   5)           59.7528         0.380232   
     57. D(H   8,C   1,O   0,H   7)    -57.4876         0.021524   
     58. D(C   2,C   1,O   0,H   7)   -175.4620         0.021524   
     59. D(H   9,C   1,O   0,H   7)     64.1926         0.021524   
     60. D(H  10,C   2,C   1,O   0)   -170.3573         0.012691   
     61. D(H  11,C   2,C   1,H   8)    -54.1970         0.012691   
     62. D(H  11,C   2,C   1,O   0)     66.5242         0.012691   
     63. D(H  10,C   2,C   1,H   9)    -49.6491         0.012691   
     64. D(N   3,C   2,C   1,H   9)     71.0617         0.012691   
     65. D(N   3,C   2,C   1,H   8)   -170.3677         0.012691   
     66. D(H  10,C   2,C   1,H   8)     68.9214         0.012691   
     67. D(N   3,C   2,C   1,O   0)    -49.6465         0.012691   
     68. D(H  11,C   2,C   1,H   9)   -172.7676         0.012691   
     69. D(H  13,N   3,C   2,H  11)    171.7526         0.013117   
     70. D(C   4,N   3,C   2,H  11)     48.2666         0.013117   
     71. D(C   4,N   3,C   2,C   1)    167.2372         0.013117   
     72. D(H  13,N   3,C   2,H  10)     53.9860         0.013117   
     73. D(H  12,N   3,C   2,H  11)    -74.6602         0.013117   
     74. D(H  13,N   3,C   2,C   1)    -69.2769         0.013117   
     75. D(H  12,N   3,C   2,C   1)     44.3104         0.013117   
     76. D(H  12,N   3,C   2,H  10)    167.5732         0.013117   
     77. D(C   4,N   3,C   2,H  10)    -69.5000         0.013117   
     78. D(H  14,C   4,N   3,H  13)    177.0710         0.015661   
     79. D(H  14,C   4,N   3,H  12)     60.6211         0.015661   
     80. D(H  14,C   4,N   3,C   2)    -59.3244         0.015661   
     81. D(C   5,C   4,N   3,H  12)   -154.3000         0.015661   
     82. D(C   5,C   4,N   3,H  13)    -37.8500         0.015661   
     83. D(C   6,C   4,N   3,C   2)    155.7530         0.015661   
     84. D(C   5,C   4,N   3,C   2)     85.7546         0.015661   
     85. D(C   6,C   4,N   3,H  12)    -84.3016         0.015661   
     86. D(C   6,C   4,N   3,H  13)     32.1484         0.015661   
     87. D(C   6,C   5,C   4,N   3)    108.6207         0.014957   
     88. D(H  16,C   5,C   4,H  14)      0.0299         0.014957   
     89. D(H  16,C   5,C   4,C   6)    109.6256         0.014957   
     90. D(H  16,C   5,C   4,N   3)   -141.7538         0.014957   
     91. D(H  15,C   5,C   4,H  14)    143.4687         0.014957   
     92. D(H  15,C   5,C   4,C   6)   -106.9356         0.014957   
     93. D(H  15,C   5,C   4,N   3)      1.6851         0.014957   
     94. D(C   6,C   5,C   4,H  14)   -109.5957         0.014957   
     95. D(H  18,C   6,C   5,H  16)     -0.3472         0.013847   
     96. D(H  18,C   6,C   5,H  15)   -145.4191         0.013847   
     97. D(H  18,C   6,C   5,C   4)    106.0821         0.013847   
     98. D(H  17,C   6,C   5,H  16)    144.9794         0.013847   
     99. D(H  17,C   6,C   5,H  15)     -0.0926         0.013847   
    100. D(H  17,C   6,C   5,C   4)   -108.5913         0.013847   
    101. D(C   4,C   6,C   5,H  16)   -106.4292         0.013847   
    102. D(C   4,C   6,C   5,H  15)    108.4988         0.013847   
    103. D(H  18,C   6,C   4,H  14)      0.1475         0.014909   
    104. D(H  18,C   6,C   4,C   5)   -109.7146         0.014909   
    105. D(H  18,C   6,C   4,N   3)    141.8304         0.014909   
    106. D(H  17,C   6,C   4,H  14)   -143.0447         0.014909   
    107. D(H  17,C   6,C   4,C   5)    107.0932         0.014909   
    108. D(H  17,C   6,C   4,N   3)     -1.3618         0.014909   
    109. D(C   5,C   6,C   4,H  14)    109.8621         0.014909   
    110. D(C   5,C   6,C   4,N   3)   -108.4550         0.014909   
    -----------------------------------------------------------------

Number of atoms                         .... 19
Number of degrees of freedom            .... 110

         *************************************************************
         *                GEOMETRY OPTIMIZATION CYCLE   1            *
         *************************************************************


           ************************************************************
           *        Program running with 8 parallel MPI-processes     *
           *              working on a common directory               *
           ************************************************************
           ************************************************************
           *              Shut down parallel processing               *
           ************************************************************


           ************************************************************
           *        Program running with 8 parallel MPI-processes     *
           *              working on a common directory               *
           ************************************************************
------------
SCF SETTINGS
------------
Hamiltonian:
 Density Functional     Method          .... DFT(GTOs)
 Exchange Functional    Exchange        .... PBE
   PBE kappa parameter  XKappa          ....  0.804000
 Correlation Functional Correlation     .... PBE
 LDA part of GGA corr.  LDAOpt          .... PW91-LDA
 Gradients option       PostSCFGGA      .... off
 Hybrid DFT is turned on
   Fraction HF Exchange ScalHFX         ....  0.250000
   Scaling of DF-GGA-X  ScalDFX         ....  0.750000
   Scaling of DF-GGA-C  ScalDFC         ....  1.000000
   Scaling of DF-LDA-C  ScalLDAC        ....  1.000000
   Perturbative correction              ....  0.000000
   NL short-range parameter             ....  6.900000


General Settings:
 Integral files         IntName         .... 6742_+
 Hartree-Fock type      HFTyp           .... RHF
 Total Charge           Charge          ....    1
 Multiplicity           Mult            ....    1
 Number of Electrons    NEL             ....   56
 Basis Dimension        Dim             ....  289
 Nuclear Repulsion      ENuc            ....    326.9371896015 Eh

Convergence Acceleration:
 DIIS                   CNVDIIS         .... on
   Start iteration      DIISMaxIt       ....    12
   Startup error        DIISStart       ....  0.200000
   # of expansion vecs  DIISMaxEq       ....     5
   Bias factor          DIISBfac        ....   1.050
   Max. coefficient     DIISMaxC        ....  10.000
 Newton-Raphson         CNVNR           .... off
 SOSCF                  CNVSOSCF        .... on
   Start iteration      SOSCFMaxIt      ....   150
   Startup grad/error   SOSCFStart      ....  0.003300
 Level Shifting         CNVShift        .... on
   Level shift para.    LevelShift      ....    0.2500
   Turn off err/grad.   ShiftErr        ....    0.0010
 Zerner damping         CNVZerner       .... off
 Static damping         CNVDamp         .... on
   Fraction old density DampFac         ....    0.7000
   Max. Damping (<1)    DampMax         ....    0.9800
   Min. Damping (>=0)   DampMin         ....    0.0000
   Turn off err/grad.   DampErr         ....    0.1000
 Fernandez-Rico         CNVRico         .... off

SCF Procedure:
 Maximum # iterations   MaxIter         ....   125
 SCF integral mode      SCFMode         .... Direct
   Integral package                     .... LIBINT
 Reset frequeny         DirectResetFreq ....    20
 Integral Threshold     Thresh          ....  2.500e-11 Eh
 Primitive CutOff       TCut            ....  2.500e-12 Eh

Convergence Tolerance:
 Convergence Check Mode ConvCheckMode   .... Total+1el-Energy
 Energy Change          TolE            ....  1.000e-08 Eh
 1-El. energy change                    ....  1.000e-05 Eh
 Orbital Gradient       TolG            ....  1.000e-05
 Orbital Rotation angle TolX            ....  1.000e-05
 DIIS Error             TolErr          ....  5.000e-07


Diagonalization of the overlap matrix:
Smallest eigenvalue                        ... 1.615e-04
Time for diagonalization                   ...    0.123 sec
Threshold for overlap eigenvalues          ... 1.000e-08
Number of eigenvalues below threshold      ... 0
Time for construction of square roots      ...    0.012 sec
Total time needed                          ...    0.135 sec

-------------------
DFT GRID GENERATION
-------------------

General Integration Accuracy     IntAcc      ...  4.340
Radial Grid Type                 RadialGrid  ... Gauss-Chebyshev
Angular Grid (max. acc.)         AngularGrid ... Lebedev-194
Angular grid pruning method      GridPruning ... 3 (G Style)
Weight generation scheme         WeightScheme... Becke
Basis function cutoff            BFCut       ...    1.0000e-11
Integration weight cutoff        WCut        ...    1.0000e-14
Grids for H and He will be reduced by one unit

# of grid points (after initial pruning)     ...  41422 (   0.0 sec)
# of grid points (after weights+screening)   ...  37916 (   0.1 sec)
nearest neighbour list constructed           ...    0.0 sec
Grid point re-assignment to atoms done       ...    0.0 sec
Grid point division into batches done        ...    0.1 sec
Reduced shell lists constructed in    0.2 sec

Total number of grid points                  ...    37916
Total number of batches                      ...      602
Average number of points per batch           ...       62
Average number of grid points per atom       ...     1996
Average number of shells per batch           ...    89.57 (71.66%)
Average number of basis functions per batch  ...   210.01 (72.67%)
Average number of large shells per batch     ...    71.19 (79.48%)
Average number of large basis fcns per batch ...   164.75 (78.45%)
Maximum spatial batch extension              ...   9.09, 11.21,  4.73 au
Average spatial batch extension              ...   0.18,  0.19,  0.17 au

Time for grid setup =    0.670 sec

Loading Hartree-Fock densities                     ... done
Calculating cut-offs                               ... done
Setting up the integral package                    ... done
Initializing the effective Hamiltonian             ... done
Starting the Coulomb interaction                   ... done (   0.0 sec)
Reading the grid                                   ... done
Mapping shells                                     ... done
Starting the XC term evaluation                    ... done (   0.4 sec)
  promolecular density results
     # of electrons  =     56.995411592
     EX              =    -43.895350837
     EC              =     -1.886420772
     EX+EC           =    -45.781771609
Transforming the Hamiltonian                       ... done (   0.0 sec)
Diagonalizing the Hamiltonian                      ... done (   0.0 sec)
Back transforming the eigenvectors                 ... done (   0.0 sec)
Now organizing SCF variables                       ... done
--------------
SCF ITERATIONS
--------------
ITER       Energy         Delta-E        Max-DP      RMS-DP      [F,P]     Damp
               ***  Starting incremental Fock matrix formation  ***
  0   -327.0384230675   0.000000000000 0.03857163  0.00081872  0.2287159 0.7000
  1   -327.1127609505  -0.074337883058 0.02086546  0.00059995  0.0992955 0.7000
                               ***Turning on DIIS***
  2   -327.1438590358  -0.031098085266 0.03653957  0.00104749  0.0300197 0.0000
  3   -327.1921721435  -0.048313107713 0.01550882  0.00040081  0.0520001 0.0000
  4   -327.2025129880  -0.010340844502 0.00362953  0.00010825  0.0056622 0.0000
  5   -327.2028559950  -0.000343007028 0.00207840  0.00004413  0.0060903 0.0000
                      *** Initiating the SOSCF procedure ***
                           *** Shutting down DIIS ***
                      *** Re-Reading the Fockian *** 
                      *** Removing any level shift *** 
ITER      Energy       Delta-E        Grad      Rot      Max-DP    RMS-DP
  6   -327.20290092  -0.0000449243  0.000128  0.000128  0.000842  0.000023
               *** Restarting incremental Fock matrix formation ***
  7   -327.20290287  -0.0000019480  0.000059  0.000104  0.000163  0.000004
  8   -327.20290282   0.0000000440  0.000068  0.000067  0.000090  0.000002
  9   -327.20290305  -0.0000002250  0.000004  0.000006  0.000016  0.000000
 10   -327.20290305  -0.0000000008  0.000005  0.000003  0.000010  0.000000
                  ***Gradient check signals convergence***
              ***Rediagonalizing the Fockian in SOSCF/NRSCF***

               *****************************************************
               *                     SUCCESS                       *
               *           SCF CONVERGED AFTER  11 CYCLES          *
               *****************************************************

Setting up the final grid:

General Integration Accuracy     IntAcc      ...  5.010
Radial Grid Type                 RadialGrid  ... Gauss-Chebyshev
Angular Grid (max. acc.)         AngularGrid ... Lebedev-434
Angular grid pruning method      GridPruning ... 3 (G Style)
Weight generation scheme         WeightScheme... Becke
Basis function cutoff            BFCut       ...    1.0000e-11
Integration weight cutoff        WCut        ...    1.0000e-14
Grids for H and He will be reduced by one unit

# of grid points (after initial pruning)     ... 155226 (   0.0 sec)
# of grid points (after weights+screening)   ... 140270 (   2.4 sec)
nearest neighbour list constructed           ...    0.0 sec
Grid point re-assignment to atoms done       ...    0.0 sec
Grid point division into batches done        ...    1.0 sec
Reduced shell lists constructed in    1.2 sec

Total number of grid points                  ...   140270
Total number of batches                      ...     2201
Average number of points per batch           ...       63
Average number of grid points per atom       ...     7383
Average number of shells per batch           ...    88.77 (71.02%)
Average number of basis functions per batch  ...   207.84 (71.92%)
Average number of large shells per batch     ...    69.97 (78.82%)
Average number of large basis fcns per batch ...   161.61 (77.76%)
Maximum spatial batch extension              ...   8.30, 12.54,  5.38 au
Average spatial batch extension              ...   0.12,  0.12,  0.11 au

Final grid set up in    4.7 sec
Final integration                            ... done (   1.1 sec)
Change in XC energy                          ...     0.000489644
Integrated number of electrons               ...    56.000033349
Previous integrated no of electrons          ...    56.000646694
Total Energy       :         -327.20241341 Eh           -8903.63032 eV
  Last Energy change         ...   -1.0309e-09  Tolerance :   1.0000e-08
  Last MAX-Density change    ...    3.2524e-06  Tolerance :   1.0000e-07
             **** THE GBW FILE WAS UPDATED (6742_+.gbw) ****
             **** DENSITY FILE WAS UPDATED (6742_+.scfp.tmp) ****
             **** ENERGY FILE WAS UPDATED (6742_+.en.tmp) ****
Total SCF time: 0 days 0 hours 1 min 27 sec 
           ************************************************************
           *              Shut down parallel processing               *
           ************************************************************

-------------------------   --------------------
FINAL SINGLE POINT ENERGY      -327.202413406181
-------------------------   --------------------



           ************************************************************
           *        Program running with 8 parallel MPI-processes     *
           *              working on a common directory               *
           ************************************************************
------------------------------------------------------------------------------
                         ORCA SCF GRADIENT CALCULATION
------------------------------------------------------------------------------

Gradient of the Kohn-Sham DFT energy:
Kohn-Sham wavefunction type      ... RKS
Hartree-Fock exchange scaling    ...    0.250
Number of operators              ...    1
Number of atoms                  ...   19
Basis set dimensions             ...  289
Integral neglect threshold       ... 2.5e-11
Integral primitive cutoff        ... 2.5e-12

Nuclear repulsion gradient       ... done
One Electron Gradient            ... done
Pre-screening matrix             ... done
Starting the two electron gradient:
Two electron gradient done
Exchange-correlation gradient    ... done

------------------
CARTESIAN GRADIENT
------------------

   1   O   :    0.000009367    0.000082982    0.000052401
   2   C   :    0.000119100   -0.000109893   -0.000160797
   3   C   :   -0.000176437   -0.000068958   -0.000016185
   4   N   :    0.000016721   -0.000112107   -0.000178337
   5   C   :   -0.000017595    0.000483322    0.000185729
   6   C   :    0.000190063   -0.000087222    0.000215607
   7   C   :   -0.000256050   -0.000151952   -0.000252605
   8   H   :   -0.000026672   -0.000060153    0.000036008
   9   H   :   -0.000130516    0.000054411    0.000062967
  10   H   :    0.000034776    0.000119823    0.000047124
  11   H   :    0.000071095   -0.000053863    0.000074365
  12   H   :   -0.000013055   -0.000011192   -0.000029927
  13   H   :    0.000073493    0.000035903    0.000034933
  14   H   :    0.000015601   -0.000078466   -0.000020269
  15   H   :   -0.000066142   -0.000013167   -0.000022509
  16   H   :   -0.000058816   -0.000109701    0.000015547
  17   H   :   -0.000010614   -0.000025902   -0.000036857
  18   H   :    0.000218433    0.000088284    0.000026089
  19   H   :    0.000007247    0.000017851   -0.000033284

Norm of the cartesian gradient     ...    0.000900605
RMS gradient                       ...    0.000119288
MAX gradient                       ...    0.000483322

-------
TIMINGS
-------

Total SCF gradient time            ...       34.004 sec

One electron gradient       ....       0.146 sec  (  0.4%)
Prescreening matrices       ....       0.375 sec  (  1.1%)
Two electron gradient       ....      28.011 sec  ( 82.4%)
XC gradient                 ....       3.776 sec  ( 11.1%)
           ************************************************************
           *              Shut down parallel processing               *
           ************************************************************
------------------------------------------------------------------------------
                         ORCA GEOMETRY RELAXATION STEP
------------------------------------------------------------------------------

Reading the OPT-File                    .... done
Getting information on internals        .... done
Copying old internal coords+grads       .... done
Making the new internal coordinates     .... (new redundants).... done
Validating the new internal coordinates .... (new redundants).... done
Calculating the B-matrix                .... done
Calculating the G,G- and P matrices     .... done
Transforming gradient to internals      .... done
Projecting the internal gradient        .... done
Number of atoms                         ....  19
Number of internal coordinates          .... 110
Current Energy                          ....  -327.202413406 Eh
Current gradient norm                   ....     0.000900605 Eh/bohr
Maximum allowed component of the step   ....  0.300
Current trust radius                    ....  0.300
Evaluating the initial hessian          ....  (Almloef) done
Projecting the Hessian                  .... done
Forming the augmented Hessian           .... done
Diagonalizing the augmented Hessian     .... done
Last element of RFO vector              ....  0.999989290
Lowest eigenvalues of augmented Hessian:
 -0.000002254  0.012690694  0.013116667  0.015661108  0.021524371
Length of the computed step             ....  0.004628279
The final length of the internal step   ....  0.004628279
Converting the step to cartesian space:
 Initial RMS(Int)=    0.0004412891
Transforming coordinates:
 Iter   0:  RMS(Cart)=    0.0018926699 RMS(Int)=    0.0004412064
 Iter   1:  RMS(Cart)=    0.0000017496 RMS(Int)=    0.0000008247
 Iter   2:  RMS(Cart)=    0.0000000027 RMS(Int)=    0.0000000012
done
Storing new coordinates                 .... done

                                .--------------------.
          ----------------------|Geometry convergence|---------------------
          Item                value                 Tolerance   Converged
          -----------------------------------------------------------------
          RMS gradient        0.00007440            0.00003000      NO
          MAX gradient        0.00030365            0.00010000      NO
          RMS step            0.00044129            0.00060000      YES
          MAX step            0.00181484            0.00100000      NO
          ....................................................
          Max(Bonds)      0.0003      Max(Angles)    0.05
          Max(Dihed)        0.10      Max(Improp)    0.00
          -----------------------------------------------------------------

The optimization has not yet converged - more geometry cycles are needed


    ---------------------------------------------------------------------------
                         Redundant Internal Coordinates
                            (Angstroem and degrees)

        Definition                    Value    dE/dq     Step     New-Value
    ----------------------------------------------------------------------------
     1. B(C   1,O   0)                1.4095  0.000012 -0.0000    1.4094   
     2. B(C   2,C   1)                1.5114  0.000061 -0.0001    1.5114   
     3. B(N   3,C   2)                1.4965  0.000107 -0.0002    1.4963   
     4. B(C   4,N   3)                1.4720 -0.000194  0.0002    1.4722   
     5. B(C   5,C   4)                1.4885 -0.000139  0.0002    1.4887   
     6. B(C   6,C   5)                1.4992 -0.000135  0.0002    1.4994   
     7. B(C   6,C   4)                1.4890  0.000144 -0.0002    1.4888   
     8. B(H   7,O   0)                0.9612  0.000017 -0.0000    0.9612   
     9. B(H   8,C   1)                1.0948  0.000155 -0.0002    1.0946   
    10. B(H   9,C   1)                1.0985  0.000115 -0.0002    1.0983   
    11. B(H  10,C   2)                1.0889 -0.000108  0.0002    1.0890   
    12. B(H  11,C   2)                1.0904  0.000018 -0.0000    1.0903   
    13. B(H  12,N   3)                1.0291  0.000034 -0.0000    1.0290   
    14. B(H  13,N   3)                1.0222 -0.000043  0.0001    1.0222   
    15. B(H  14,C   4)                1.0825  0.000047 -0.0001    1.0824   
    16. B(H  15,C   5)                1.0845 -0.000118  0.0002    1.0847   
    17. B(H  16,C   5)                1.0818  0.000040 -0.0001    1.0818   
    18. B(H  17,C   6)                1.0847  0.000237 -0.0003    1.0844   
    19. B(H  18,C   6)                1.0818 -0.000001  0.0000    1.0818   
    20. A(C   1,O   0,H   7)          111.08  0.000082   -0.01    111.07   
    21. A(C   2,C   1,H   9)          111.00  0.000058   -0.02    110.98   
    22. A(H   8,C   1,H   9)          108.02 -0.000020    0.01    108.03   
    23. A(O   0,C   1,H   8)          112.65 -0.000033    0.01    112.67   
    24. A(C   2,C   1,H   8)          108.55 -0.000069    0.02    108.56   
    25. A(O   0,C   1,C   2)          105.05  0.000091   -0.02    105.03   
    26. A(O   0,C   1,H   9)          111.55 -0.000025   -0.01    111.55   
    27. A(C   1,C   2,H  10)          112.98 -0.000092    0.02    113.00   
    28. A(H  10,C   2,H  11)          109.46  0.000045    0.00    109.46   
    29. A(C   1,C   2,N   3)          108.46  0.000257   -0.05    108.41   
    30. A(C   1,C   2,H  11)          110.64 -0.000035   -0.00    110.63   
    31. A(N   3,C   2,H  10)          108.81 -0.000100    0.02    108.83   
    32. A(N   3,C   2,H  11)          106.26 -0.000075    0.00    106.26   
    33. A(C   2,N   3,C   4)          114.97 -0.000304    0.05    115.02   
    34. A(C   4,N   3,H  13)          109.29  0.000042    0.00    109.29   
    35. A(H  12,N   3,H  13)          105.84 -0.000071    0.01    105.85   
    36. A(C   2,N   3,H  13)          109.52  0.000150   -0.02    109.49   
    37. A(C   4,N   3,H  12)          111.13  0.000117   -0.02    111.11   
    38. A(C   2,N   3,H  12)          105.66  0.000084   -0.02    105.64   
    39. A(C   5,C   4,H  14)          120.16 -0.000019    0.02    120.18   
    40. A(N   3,C   4,H  14)          110.88 -0.000066    0.01    110.89   
    41. A(C   5,C   4,C   6)           60.47 -0.000057    0.01     60.47   
    42. A(C   6,C   4,H  14)          120.00 -0.000025    0.01    120.01   
    43. A(N   3,C   4,C   6)          118.67  0.000115   -0.04    118.62   
    44. A(N   3,C   4,C   5)          118.56  0.000076   -0.01    118.56   
    45. A(C   4,C   5,H  16)          117.34 -0.000035   -0.00    117.34   
    46. A(C   6,C   5,H  15)          117.43  0.000014   -0.01    117.42   
    47. A(C   4,C   5,H  15)          118.37 -0.000029    0.01    118.38   
    48. A(C   4,C   5,C   6)           59.78  0.000115   -0.02     59.76   
    49. A(C   6,C   5,H  16)          119.27 -0.000067    0.01    119.28   
    50. A(H  15,C   5,H  16)          114.18  0.000028    0.00    114.18   
    51. A(H  17,C   6,H  18)          114.15 -0.000028    0.00    114.16   
    52. A(C   5,C   6,H  18)          119.25 -0.000004    0.01    119.26   
    53. A(C   4,C   6,H  18)          117.06  0.000030   -0.01    117.05   
    54. A(C   5,C   6,H  17)          117.62  0.000034   -0.00    117.62   
    55. A(C   4,C   6,H  17)          118.53  0.000022   -0.01    118.52   
    56. A(C   4,C   6,C   5)           59.75 -0.000058    0.01     59.76   
    57. D(H   8,C   1,O   0,H   7)    -57.49  0.000040   -0.09    -57.57   
    58. D(C   2,C   1,O   0,H   7)   -175.46  0.000084   -0.10   -175.57   
    59. D(H   9,C   1,O   0,H   7)     64.19 -0.000028   -0.06     64.13   
    60. D(H  10,C   2,C   1,O   0)   -170.36 -0.000041    0.04   -170.32   
    61. D(H  11,C   2,C   1,H   8)    -54.20  0.000016    0.01    -54.19   
    62. D(H  11,C   2,C   1,O   0)     66.52 -0.000007    0.02     66.55   
    63. D(H  10,C   2,C   1,H   9)    -49.65  0.000016    0.01    -49.64   
    64. D(N   3,C   2,C   1,H   9)     71.06  0.000009    0.02     71.08   
    65. D(N   3,C   2,C   1,H   8)   -170.37 -0.000024    0.04   -170.33   
    66. D(H  10,C   2,C   1,H   8)     68.92 -0.000017    0.03     68.95   
    67. D(N   3,C   2,C   1,O   0)    -49.65 -0.000048    0.05    -49.60   
    68. D(H  11,C   2,C   1,H   9)   -172.77  0.000049   -0.01   -172.78   
    69. D(H  13,N   3,C   2,H  11)    171.75 -0.000058    0.04    171.79   
    70. D(C   4,N   3,C   2,H  11)     48.27 -0.000010    0.02     48.28   
    71. D(C   4,N   3,C   2,C   1)    167.24  0.000042   -0.01    167.23   
    72. D(H  13,N   3,C   2,H  10)     53.99 -0.000020    0.02     54.00   
    73. D(H  12,N   3,C   2,H  11)    -74.66 -0.000028    0.02    -74.64   
    74. D(H  13,N   3,C   2,C   1)    -69.28 -0.000007    0.01    -69.27   
    75. D(H  12,N   3,C   2,C   1)     44.31  0.000024   -0.00     44.31   
    76. D(H  12,N   3,C   2,H  10)    167.57  0.000010    0.01    167.58   
    77. D(C   4,N   3,C   2,H  10)    -69.50  0.000028   -0.00    -69.50   
    78. D(H  14,C   4,N   3,H  13)    177.07  0.000023   -0.06    177.01   
    79. D(H  14,C   4,N   3,H  12)     60.62  0.000015   -0.05     60.57   
    80. D(H  14,C   4,N   3,C   2)    -59.32  0.000032   -0.05    -59.38   
    81. D(C   5,C   4,N   3,H  12)   -154.30 -0.000009   -0.01   -154.31   
    82. D(C   5,C   4,N   3,H  13)    -37.85 -0.000002   -0.02    -37.87   
    83. D(C   6,C   4,N   3,C   2)    155.75  0.000012   -0.02    155.73   
    84. D(C   5,C   4,N   3,C   2)     85.75  0.000008   -0.01     85.74   
    85. D(C   6,C   4,N   3,H  12)    -84.30 -0.000005   -0.02    -84.32   
    86. D(C   6,C   4,N   3,H  13)     32.15  0.000003   -0.03     32.12   
    87. D(C   6,C   5,C   4,N   3)    108.62  0.000086   -0.04    108.58   
    88. D(H  16,C   5,C   4,H  14)      0.03  0.000020    0.00      0.03   
    89. D(H  16,C   5,C   4,C   6)    109.63 -0.000026    0.01    109.63   
    90. D(H  16,C   5,C   4,N   3)   -141.75  0.000059   -0.04   -141.79   
    91. D(H  15,C   5,C   4,H  14)    143.47 -0.000027    0.02    143.49   
    92. D(H  15,C   5,C   4,C   6)   -106.94 -0.000074    0.03   -106.91   
    93. D(H  15,C   5,C   4,N   3)      1.69  0.000012   -0.02      1.67   
    94. D(C   6,C   5,C   4,H  14)   -109.60  0.000047   -0.01   -109.60   
    95. D(H  18,C   6,C   5,H  16)     -0.35 -0.000019    0.00     -0.35   
    96. D(H  18,C   6,C   5,H  15)   -145.42  0.000014   -0.00   -145.42   
    97. D(H  18,C   6,C   5,C   4)    106.08  0.000015   -0.01    106.07   
    98. D(H  17,C   6,C   5,H  16)    144.98 -0.000025    0.02    145.00   
    99. D(H  17,C   6,C   5,H  15)     -0.09  0.000008    0.02     -0.08   
   100. D(H  17,C   6,C   5,C   4)   -108.59  0.000009    0.00   -108.59   
   101. D(C   4,C   6,C   5,H  16)   -106.43 -0.000034    0.01   -106.42   
   102. D(C   4,C   6,C   5,H  15)    108.50 -0.000000    0.01    108.51   
   103. D(H  18,C   6,C   4,H  14)      0.15  0.000000    0.00      0.15   
   104. D(H  18,C   6,C   4,C   5)   -109.71  0.000037   -0.02   -109.73   
   105. D(H  18,C   6,C   4,N   3)    141.83  0.000014   -0.03    141.80   
   106. D(H  17,C   6,C   4,H  14)   -143.04 -0.000028    0.02   -143.02   
   107. D(H  17,C   6,C   4,C   5)    107.09  0.000009    0.00    107.10   
   108. D(H  17,C   6,C   4,N   3)     -1.36 -0.000014   -0.01     -1.37   
   109. D(C   5,C   6,C   4,H  14)    109.86 -0.000037    0.02    109.88   
   110. D(C   5,C   6,C   4,N   3)   -108.45 -0.000023   -0.01   -108.47   
    ----------------------------------------------------------------------------

         *************************************************************
         *                GEOMETRY OPTIMIZATION CYCLE   2            *
         *************************************************************
---------------------------------
CARTESIAN COORDINATES (ANGSTROEM)
---------------------------------
  O      0.000686   -0.000780    2.619751
  C     -0.653154    1.078826    1.992483
  C     -0.969792    0.588592    0.598347
  N      0.274014   -0.000013    0.010525
  C      0.071093   -0.783330   -1.219397
  C      0.049792   -0.066732   -2.524142
  C      1.213121   -0.940404   -2.161489
  H      0.182531    0.194683    3.543126
  H     -1.590849    1.349550    2.488053
  H     -0.015568    1.972529    1.959785
  H     -1.329441    1.378747   -0.059157
  H     -1.702824   -0.217855    0.631898
  H      0.685688   -0.578957    0.755008
  H      0.950857    0.744235   -0.170831
  H     -0.602616   -1.611829   -1.042564
  H      0.212120    1.005709   -2.526053
  H     -0.657581   -0.409112   -3.267504
  H      2.152149   -0.453643   -1.922516
  H      1.323354   -1.901818   -2.645018

----------------------------
CARTESIAN COORDINATES (A.U.)
----------------------------
  NO LB      ZA    FRAG    MASS        X           Y           Z
   0 O     8.0000    0    15.999          0.001297075309165         -0.001473620020280          4.950611671999798
   1 C     6.0000    0    12.011         -1.234281381236164          2.038685281186294          3.765246682049622
   2 C     6.0000    0    12.011         -1.832641536866706          1.112278446476018          1.130712175986887
   3 N     7.0000    0    14.007          0.517810826779258         -0.000024812926446          0.019888718730261
   4 C     6.0000    0    12.011          0.134346587090033         -1.480278431402299         -2.304325687865532
   5 C     6.0000    0    12.011          0.094092326446857         -0.126104623408924         -4.769936226756582
   6 C     6.0000    0    12.011          2.292466201200870         -1.777106927649145         -4.084621797788690
   7 H     1.0000    0     1.008          0.344933459310710          0.367897673106054          6.695537028700327
   8 H     1.0000    0     1.008         -3.006269799871454          2.550279965987588          4.701739213730397
   9 H     1.0000    0     1.008         -0.029419074854970          3.727539557108886          3.703457347648027
  10 H     1.0000    0     1.008         -2.512280122745667          2.605454956813761         -0.111790653739770
  11 H     1.0000    0     1.008         -3.217871537374509         -0.411685377682776          1.194113260967772
  12 H     1.0000    0     1.008          1.295761819600521         -1.094069644790449          1.426757424303110
  13 H     1.0000    0     1.008          1.796859001460947          1.406400013866158         -0.322824156666450
  14 H     1.0000    0     1.008         -1.138779156381953         -3.045915125207851         -1.970160684978696
  15 H     1.0000    0     1.008          0.400849468229894          1.900514197569840         -4.773548880680732
  16 H     1.0000    0     1.008         -1.242648535258289         -0.773109709132151         -6.174686845192160
  17 H     1.0000    0     1.008          4.066971314721721         -0.857261072002126         -3.633029188369072
  18 H     1.0000    0     1.008          2.500777434700947         -3.593915050776440         -4.998360029378332

--------------------------------
INTERNAL COORDINATES (ANGSTROEM)
--------------------------------
 O      0   0   0   0.000000     0.000     0.000
 C      1   0   0   1.409440     0.000     0.000
 C      2   1   0   1.511358   105.026     0.000
 N      3   2   1   1.496344   108.410   310.403
 C      4   3   2   1.472232   115.018   167.226
 C      5   4   3   1.488733   118.557    85.741
 C      5   4   3   1.488770   118.624   155.730
 H      1   2   3   0.961194   111.072   184.434
 H      2   1   3   1.094603   112.666   117.992
 H      2   1   3   1.098312   111.545   239.694
 H      3   2   1   1.089038   113.002   189.684
 H      3   2   1   1.090329   110.633    66.548
 H      4   3   2   1.029032   105.643    44.306
 H      4   3   2   1.022209   109.493   290.731
 H      5   4   3   1.082388   110.889   300.624
 H      6   5   4   1.084658   118.381     1.667
 H      6   5   4   1.081752   117.340   218.210
 H      7   5   4   1.084351   118.520   358.630
 H      7   5   4   1.081789   117.051   141.800

---------------------------
INTERNAL COORDINATES (A.U.)
---------------------------
 O      0   0   0   0.000000     0.000     0.000
 C      1   0   0   2.663455     0.000     0.000
 C      2   1   0   2.856053   105.026     0.000
 N      3   2   1   2.827680   108.410   310.403
 C      4   3   2   2.782116   115.018   167.226
 C      5   4   3   2.813297   118.557    85.741
 C      5   4   3   2.813368   118.624   155.730
 H      1   2   3   1.816394   111.072   184.434
 H      2   1   3   2.068500   112.666   117.992
 H      2   1   3   2.075510   111.545   239.694
 H      3   2   1   2.057984   113.002   189.684
 H      3   2   1   2.060424   110.633    66.548
 H      4   3   2   1.944588   105.643    44.306
 H      4   3   2   1.931695   109.493   290.731
 H      5   4   3   2.045418   110.889   300.624
 H      6   5   4   2.049707   118.381     1.667
 H      6   5   4   2.044215   117.340   218.210
 H      7   5   4   2.049127   118.520   358.630
 H      7   5   4   2.044285   117.051   141.800



           ************************************************************
           *        Program running with 8 parallel MPI-processes     *
           *              working on a common directory               *
           ************************************************************
           ************************************************************
           *              Shut down parallel processing               *
           ************************************************************


           ************************************************************
           *        Program running with 8 parallel MPI-processes     *
           *              working on a common directory               *
           ************************************************************

Diagonalization of the overlap matrix:
Smallest eigenvalue                        ... 1.614e-04
Time for diagonalization                   ...    0.141 sec
Threshold for overlap eigenvalues          ... 1.000e-08
Number of eigenvalues below threshold      ... 0
Time for construction of square roots      ...    0.024 sec
Total time needed                          ...    0.165 sec

-------------------
DFT GRID GENERATION
-------------------

General Integration Accuracy     IntAcc      ...  4.340
Radial Grid Type                 RadialGrid  ... Gauss-Chebyshev
Angular Grid (max. acc.)         AngularGrid ... Lebedev-194
Angular grid pruning method      GridPruning ... 3 (G Style)
Weight generation scheme         WeightScheme... Becke
Basis function cutoff            BFCut       ...    1.0000e-11
Integration weight cutoff        WCut        ...    1.0000e-14
Grids for H and He will be reduced by one unit

# of grid points (after initial pruning)     ...  41422 (   0.0 sec)
# of grid points (after weights+screening)   ...  37918 (   0.2 sec)
nearest neighbour list constructed           ...    0.0 sec
Grid point re-assignment to atoms done       ...    0.0 sec
Grid point division into batches done        ...    0.1 sec
Reduced shell lists constructed in    0.1 sec

Total number of grid points                  ...    37918
Total number of batches                      ...      602
Average number of points per batch           ...       62
Average number of grid points per atom       ...     1996
Average number of shells per batch           ...    89.68 (71.74%)
Average number of basis functions per batch  ...   210.32 (72.78%)
Average number of large shells per batch     ...    71.35 (79.57%)
Average number of large basis fcns per batch ...   165.12 (78.51%)
Maximum spatial batch extension              ...   9.08, 11.21,  4.74 au
Average spatial batch extension              ...   0.18,  0.19,  0.17 au

Time for grid setup =    0.449 sec

--------------
SCF ITERATIONS
--------------
ITER       Energy         Delta-E        Max-DP      RMS-DP      [F,P]     Damp
               ***  Starting incremental Fock matrix formation  ***
                      *** Initiating the SOSCF procedure ***
                      *** Re-Reading the Fockian *** 
                      *** Removing any level shift *** 
ITER      Energy       Delta-E        Grad      Rot      Max-DP    RMS-DP
  0   -327.20290230 -327.2029022994  0.000141  0.000141  0.000445  0.000008
               *** Restarting incremental Fock matrix formation ***
  1   -327.20290522  -0.0000029244  0.000035  0.000062  0.000187  0.000003
  2   -327.20290547  -0.0000002471  0.000018  0.000040  0.000060  0.000002
  3   -327.20290547  -0.0000000017  0.000016  0.000019  0.000032  0.000001
                  ***Gradient check signals convergence***
              ***Rediagonalizing the Fockian in SOSCF/NRSCF***

               *****************************************************
               *                     SUCCESS                       *
               *           SCF CONVERGED AFTER   4 CYCLES          *
               *****************************************************

Setting up the final grid:

General Integration Accuracy     IntAcc      ...  5.010
Radial Grid Type                 RadialGrid  ... Gauss-Chebyshev
Angular Grid (max. acc.)         AngularGrid ... Lebedev-434
Angular grid pruning method      GridPruning ... 3 (G Style)
Weight generation scheme         WeightScheme... Becke
Basis function cutoff            BFCut       ...    1.0000e-11
Integration weight cutoff        WCut        ...    1.0000e-14
Grids for H and He will be reduced by one unit

# of grid points (after initial pruning)     ... 155226 (   0.0 sec)
# of grid points (after weights+screening)   ... 140265 (   1.1 sec)
nearest neighbour list constructed           ...    0.0 sec
Grid point re-assignment to atoms done       ...    0.0 sec
Grid point division into batches done        ...    1.0 sec
Reduced shell lists constructed in    1.3 sec

Total number of grid points                  ...   140265
Total number of batches                      ...     2200
Average number of points per batch           ...       63
Average number of grid points per atom       ...     7382
Average number of shells per batch           ...    88.75 (71.00%)
Average number of basis functions per batch  ...   207.75 (71.89%)
Average number of large shells per batch     ...    69.91 (78.77%)
Average number of large basis fcns per batch ...   161.49 (77.73%)
Maximum spatial batch extension              ...   8.30, 12.54,  5.38 au
Average spatial batch extension              ...   0.12,  0.12,  0.11 au

Final grid set up in    2.9 sec
Final integration                            ... done (   1.1 sec)
Change in XC energy                          ...     0.000490516
Integrated number of electrons               ...    56.000034101
Previous integrated no of electrons          ...    56.000651683
Total Energy       :         -327.20241498 Eh           -8903.63036 eV
  Last Energy change         ...   -2.6423e-08  Tolerance :   1.0000e-08
  Last MAX-Density change    ...    8.9606e-06  Tolerance :   1.0000e-07
             **** THE GBW FILE WAS UPDATED (6742_+.gbw) ****
             **** DENSITY FILE WAS UPDATED (6742_+.scfp.tmp) ****
             **** ENERGY FILE WAS UPDATED (6742_+.en.tmp) ****
Total SCF time: 0 days 0 hours 0 min 35 sec 
           ************************************************************
           *              Shut down parallel processing               *
           ************************************************************

-------------------------   --------------------
FINAL SINGLE POINT ENERGY      -327.202414983348
-------------------------   --------------------



           ************************************************************
           *        Program running with 8 parallel MPI-processes     *
           *              working on a common directory               *
           ************************************************************
------------------------------------------------------------------------------
                         ORCA SCF GRADIENT CALCULATION
------------------------------------------------------------------------------

Gradient of the Kohn-Sham DFT energy:
Kohn-Sham wavefunction type      ... RKS
Hartree-Fock exchange scaling    ...    0.250
Number of operators              ...    1
Number of atoms                  ...   19
Basis set dimensions             ...  289
Integral neglect threshold       ... 2.5e-11
Integral primitive cutoff        ... 2.5e-12

Nuclear repulsion gradient       ... done
One Electron Gradient            ... done
Pre-screening matrix             ... done
Starting the two electron gradient:
Two electron gradient done
Exchange-correlation gradient    ... done

------------------
CARTESIAN GRADIENT
------------------

   1   O   :    0.000022098    0.000081829   -0.000043615
   2   C   :    0.000059986   -0.000070821   -0.000064828
   3   C   :   -0.000099428   -0.000056634    0.000079133
   4   N   :    0.000009202   -0.000094337    0.000032227
   5   C   :   -0.000012711    0.000222798    0.000106776
   6   C   :    0.000073016   -0.000101869    0.000074123
   7   C   :   -0.000052446   -0.000022662   -0.000104148
   8   H   :   -0.000032867   -0.000036193    0.000003477
   9   H   :   -0.000022173    0.000029703   -0.000015152
  10   H   :   -0.000012795    0.000016652    0.000018572
  11   H   :    0.000023179    0.000021871    0.000005306
  12   H   :    0.000017001   -0.000004372   -0.000014451
  13   H   :    0.000034209    0.000031752   -0.000011727
  14   H   :    0.000021058   -0.000011173   -0.000005152
  15   H   :   -0.000019146   -0.000000033   -0.000037530
  16   H   :   -0.000024815    0.000007829   -0.000004745
  17   H   :    0.000001276   -0.000001953   -0.000008234
  18   H   :    0.000014637   -0.000016346   -0.000007675
  19   H   :    0.000000719    0.000003959   -0.000002357

Norm of the cartesian gradient     ...    0.000400212
RMS gradient                       ...    0.000053009
MAX gradient                       ...    0.000222798

-------
TIMINGS
-------

Total SCF gradient time            ...       33.338 sec

One electron gradient       ....       0.142 sec  (  0.4%)
Prescreening matrices       ....       0.407 sec  (  1.2%)
Two electron gradient       ....      27.531 sec  ( 82.6%)
XC gradient                 ....       3.430 sec  ( 10.3%)
           ************************************************************
           *              Shut down parallel processing               *
           ************************************************************
------------------------------------------------------------------------------
                         ORCA GEOMETRY RELAXATION STEP
------------------------------------------------------------------------------

Reading the OPT-File                    .... done
Getting information on internals        .... done
Copying old internal coords+grads       .... done
Making the new internal coordinates     .... (new redundants).... done
Validating the new internal coordinates .... (new redundants).... done
Calculating the B-matrix                .... done
Calculating the G,G- and P matrices     .... done
Transforming gradient to internals      .... done
Projecting the internal gradient        .... done
Number of atoms                         ....  19
Number of internal coordinates          .... 110
Current Energy                          ....  -327.202414983 Eh
Current gradient norm                   ....     0.000400212 Eh/bohr
Maximum allowed component of the step   ....  0.300
Current trust radius                    ....  0.300
Updating the Hessian (BFGS)             .... done
Forming the augmented Hessian           .... done
Diagonalizing the augmented Hessian     .... done
Last element of RFO vector              ....  0.999986249
Lowest eigenvalues of augmented Hessian:
 -0.000000947  0.012900154  0.013133477  0.014719590  0.019206280
Length of the computed step             ....  0.005244321
The final length of the internal step   ....  0.005244321
Converting the step to cartesian space:
 Initial RMS(Int)=    0.0005000264
Transforming coordinates:
 Iter   0:  RMS(Cart)=    0.0015672233 RMS(Int)=    0.0004999824
 Iter   1:  RMS(Cart)=    0.0000015658 RMS(Int)=    0.0000008604
 Iter   2:  RMS(Cart)=    0.0000000033 RMS(Int)=    0.0000000024
done
Storing new coordinates                 .... done

                                .--------------------.
          ----------------------|Geometry convergence|---------------------
          Item                value                 Tolerance   Converged
          -----------------------------------------------------------------
          Energy change      -0.00000158            0.00000100      NO
          RMS gradient        0.00003181            0.00003000      NO
          MAX gradient        0.00017579            0.00010000      NO
          RMS step            0.00050003            0.00060000      YES
          MAX step            0.00242870            0.00100000      NO
          ....................................................
          Max(Bonds)      0.0002      Max(Angles)    0.06
          Max(Dihed)        0.14      Max(Improp)    0.00
          -----------------------------------------------------------------

The optimization has not yet converged - more geometry cycles are needed


    ---------------------------------------------------------------------------
                         Redundant Internal Coordinates
                            (Angstroem and degrees)

        Definition                    Value    dE/dq     Step     New-Value
    ----------------------------------------------------------------------------
     1. B(C   1,O   0)                1.4094 -0.000060  0.0001    1.4095   
     2. B(C   2,C   1)                1.5114 -0.000087  0.0002    1.5115   
     3. B(N   3,C   2)                1.4963  0.000024 -0.0001    1.4963   
     4. B(C   4,N   3)                1.4722 -0.000064  0.0002    1.4724   
     5. B(C   5,C   4)                1.4887 -0.000043  0.0001    1.4889   
     6. B(C   6,C   5)                1.4994 -0.000060  0.0002    1.4995   
     7. B(C   6,C   4)                1.4888  0.000053 -0.0002    1.4886   
     8. B(H   7,O   0)                0.9612 -0.000010  0.0000    0.9612   
     9. B(H   8,C   1)                1.0946  0.000021 -0.0001    1.0945   
    10. B(H   9,C   1)                1.0983  0.000004 -0.0000    1.0983   
    11. B(H  10,C   2)                1.0890  0.000005  0.0000    1.0891   
    12. B(H  11,C   2)                1.0903 -0.000007  0.0000    1.0903   
    13. B(H  12,N   3)                1.0290 -0.000013  0.0000    1.0290   
    14. B(H  13,N   3)                1.0222  0.000007 -0.0000    1.0222   
    15. B(H  14,C   4)                1.0824  0.000005 -0.0000    1.0824   
    16. B(H  15,C   5)                1.0847  0.000004  0.0000    1.0847   
    17. B(H  16,C   5)                1.0818  0.000005 -0.0000    1.0817   
    18. B(H  17,C   6)                1.0844  0.000006 -0.0001    1.0843   
    19. B(H  18,C   6)                1.0818 -0.000004  0.0000    1.0818   
    20. A(C   1,O   0,H   7)          111.07  0.000032   -0.01    111.06   
    21. A(C   2,C   1,H   9)          110.98  0.000048   -0.02    110.96   
    22. A(H   8,C   1,H   9)          108.03 -0.000016    0.01    108.04   
    23. A(O   0,C   1,H   8)          112.67  0.000037   -0.01    112.66   
    24. A(C   2,C   1,H   8)          108.56 -0.000036    0.02    108.58   
    25. A(O   0,C   1,C   2)          105.03 -0.000036    0.00    105.03   
    26. A(O   0,C   1,H   9)          111.55  0.000005   -0.01    111.54   
    27. A(C   1,C   2,H  10)          113.00 -0.000029    0.02    113.02   
    28. A(H  10,C   2,H  11)          109.46  0.000016   -0.00    109.46   
    29. A(C   1,C   2,N   3)          108.41  0.000050   -0.02    108.39   
    30. A(C   1,C   2,H  11)          110.63  0.000007   -0.01    110.62   
    31. A(N   3,C   2,H  10)          108.83 -0.000013    0.01    108.84   
    32. A(N   3,C   2,H  11)          106.26 -0.000032    0.01    106.27   
    33. A(C   2,N   3,C   4)          115.02 -0.000176    0.06    115.08   
    34. A(C   4,N   3,H  13)          109.29  0.000037   -0.00    109.29   
    35. A(H  12,N   3,H  13)          105.85 -0.000041    0.01    105.85   
    36. A(C   2,N   3,H  13)          109.49  0.000073   -0.02    109.47   
    37. A(C   4,N   3,H  12)          111.11  0.000059   -0.02    111.09   
    38. A(C   2,N   3,H  12)          105.64  0.000058   -0.02    105.62   
    39. A(C   5,C   4,H  14)          120.18 -0.000021    0.02    120.20   
    40. A(N   3,C   4,H  14)          110.89 -0.000028    0.01    110.90   
    41. A(C   5,C   4,C   6)           60.47 -0.000027    0.01     60.48   
    42. A(C   6,C   4,H  14)          120.01 -0.000025    0.01    120.02   
    43. A(N   3,C   4,C   6)          118.62  0.000063   -0.04    118.58   
    44. A(N   3,C   4,C   5)          118.56  0.000046   -0.01    118.54   
    45. A(C   4,C   5,H  16)          117.34 -0.000015   -0.00    117.34   
    46. A(C   6,C   5,H  15)          117.42  0.000018   -0.01    117.40   
    47. A(C   4,C   5,H  15)          118.38 -0.000003    0.01    118.39   
    48. A(C   4,C   5,C   6)           59.76  0.000043   -0.01     59.75   
    49. A(C   6,C   5,H  16)          119.28 -0.000032    0.01    119.29   
    50. A(H  15,C   5,H  16)          114.18  0.000004    0.01    114.18   
    51. A(H  17,C   6,H  18)          114.16 -0.000013    0.00    114.16   
    52. A(C   5,C   6,H  18)          119.26 -0.000007    0.00    119.27   
    53. A(C   4,C   6,H  18)          117.05  0.000005   -0.00    117.05   
    54. A(C   5,C   6,H  17)          117.62  0.000022   -0.01    117.62   
    55. A(C   4,C   6,H  17)          118.52  0.000011   -0.01    118.51   
    56. A(C   4,C   6,C   5)           59.76 -0.000016    0.01     59.77   
    57. D(H   8,C   1,O   0,H   7)    -57.57  0.000007   -0.12    -57.69   
    58. D(C   2,C   1,O   0,H   7)   -175.57  0.000053   -0.14   -175.71   
    59. D(H   9,C   1,O   0,H   7)     64.13  0.000015   -0.11     64.02   
    60. D(H  10,C   2,C   1,O   0)   -170.32  0.000004   -0.01   -170.33   
    61. D(H  11,C   2,C   1,H   8)    -54.19 -0.000007   -0.01    -54.20   
    62. D(H  11,C   2,C   1,O   0)     66.55 -0.000002   -0.01     66.54   
    63. D(H  10,C   2,C   1,H   9)    -49.64  0.000013   -0.03    -49.67   
    64. D(N   3,C   2,C   1,H   9)     71.08  0.000012   -0.02     71.06   
    65. D(N   3,C   2,C   1,H   8)   -170.33 -0.000002   -0.01   -170.34   
    66. D(H  10,C   2,C   1,H   8)     68.95 -0.000001   -0.01     68.94   
    67. D(N   3,C   2,C   1,O   0)    -49.60  0.000003   -0.00    -49.60   
    68. D(H  11,C   2,C   1,H   9)   -172.78  0.000007   -0.03   -172.80   
    69. D(H  13,N   3,C   2,H  11)    171.79 -0.000020    0.02    171.81   
    70. D(C   4,N   3,C   2,H  11)     48.28  0.000002    0.00     48.28   
    71. D(C   4,N   3,C   2,C   1)    167.23  0.000019   -0.02    167.21   
    72. D(H  13,N   3,C   2,H  10)     54.00 -0.000015    0.02     54.02   
    73. D(H  12,N   3,C   2,H  11)    -74.64 -0.000004    0.01    -74.63   
    74. D(H  13,N   3,C   2,C   1)    -69.27 -0.000003    0.00    -69.27   
    75. D(H  12,N   3,C   2,C   1)     44.31  0.000013   -0.01     44.30   
    76. D(H  12,N   3,C   2,H  10)    167.58  0.000001    0.00    167.58   
    77. D(C   4,N   3,C   2,H  10)    -69.50  0.000007   -0.00    -69.51   
    78. D(H  14,C   4,N   3,H  13)    177.01  0.000016   -0.07    176.94   
    79. D(H  14,C   4,N   3,H  12)     60.57  0.000008   -0.06     60.51   
    80. D(H  14,C   4,N   3,C   2)    -59.38  0.000014   -0.06    -59.44   
    81. D(C   5,C   4,N   3,H  12)   -154.31 -0.000005   -0.03   -154.34   
    82. D(C   5,C   4,N   3,H  13)    -37.87  0.000002   -0.04    -37.91   
    83. D(C   6,C   4,N   3,C   2)    155.73  0.000010   -0.04    155.69   
    84. D(C   5,C   4,N   3,C   2)     85.74  0.000000   -0.03     85.71   
    85. D(C   6,C   4,N   3,H  12)    -84.32  0.000005   -0.04    -84.37   
    86. D(C   6,C   4,N   3,H  13)     32.12  0.000012   -0.05     32.07   
    87. D(C   6,C   5,C   4,N   3)    108.58  0.000047   -0.05    108.53   
    88. D(H  16,C   5,C   4,H  14)      0.03  0.000016   -0.00      0.03   
    89. D(H  16,C   5,C   4,C   6)    109.63 -0.000017    0.01    109.64   
    90. D(H  16,C   5,C   4,N   3)   -141.79  0.000030   -0.04   -141.83   
    91. D(H  15,C   5,C   4,H  14)    143.49 -0.000007    0.01    143.50   
    92. D(H  15,C   5,C   4,C   6)   -106.91 -0.000040    0.03   -106.88   
    93. D(H  15,C   5,C   4,N   3)      1.67  0.000007   -0.02      1.65   
    94. D(C   6,C   5,C   4,H  14)   -109.60  0.000033   -0.01   -109.61   
    95. D(H  18,C   6,C   5,H  16)     -0.35 -0.000010    0.01     -0.34   
    96. D(H  18,C   6,C   5,H  15)   -145.42  0.000006    0.00   -145.42   
    97. D(H  18,C   6,C   5,C   4)    106.07  0.000003   -0.00    106.06   
    98. D(H  17,C   6,C   5,H  16)    145.00 -0.000012    0.01    145.01   
    99. D(H  17,C   6,C   5,H  15)     -0.08  0.000005    0.01     -0.07   
   100. D(H  17,C   6,C   5,C   4)   -108.59  0.000001    0.00   -108.59   
   101. D(C   4,C   6,C   5,H  16)   -106.42 -0.000013    0.01   -106.40   
   102. D(C   4,C   6,C   5,H  15)    108.51  0.000003    0.01    108.52   
   103. D(H  18,C   6,C   4,H  14)      0.15 -0.000011    0.01      0.16   
   104. D(H  18,C   6,C   4,C   5)   -109.73  0.000016   -0.01   -109.74   
   105. D(H  18,C   6,C   4,N   3)    141.80 -0.000003   -0.01    141.79   
   106. D(H  17,C   6,C   4,H  14)   -143.02 -0.000011    0.02   -143.00   
   107. D(H  17,C   6,C   4,C   5)    107.10  0.000015   -0.00    107.10   
   108. D(H  17,C   6,C   4,N   3)     -1.37 -0.000004   -0.01     -1.38   
   109. D(C   5,C   6,C   4,H  14)    109.88 -0.000027    0.02    109.90   
   110. D(C   5,C   6,C   4,N   3)   -108.47 -0.000020   -0.01   -108.47   
    ----------------------------------------------------------------------------

         *************************************************************
         *                GEOMETRY OPTIMIZATION CYCLE   3            *
         *************************************************************
---------------------------------
CARTESIAN COORDINATES (ANGSTROEM)
---------------------------------
  O      0.000347   -0.001631    2.619371
  C     -0.652775    1.078787    1.992549
  C     -0.970454    0.589160    0.598265
  N      0.272808   -0.000231    0.010302
  C      0.070625   -0.783864   -1.219759
  C      0.049702   -0.067070   -2.524566
  C      1.213553   -0.939811   -2.160684
  H      0.184577    0.194466    3.542150
  H     -1.589734    1.350394    2.488806
  H     -0.014122    1.971651    1.959450
  H     -1.329838    1.379613   -0.059068
  H     -1.704111   -0.216723    0.632066
  H      0.683918   -0.579397    0.754944
  H      0.949953    0.743811   -0.170762
  H     -0.602396   -1.612936   -1.043152
  H      0.211391    1.005498   -2.526358
  H     -0.656793   -0.409978   -3.268484
  H      2.151769   -0.452159   -1.920759
  H      1.325159   -1.901179   -2.644008

----------------------------
CARTESIAN COORDINATES (A.U.)
----------------------------
  NO LB      ZA    FRAG    MASS        X           Y           Z
   0 O     8.0000    0    15.999          0.000656164467229         -0.003082519431682          4.949893203165101
   1 C     6.0000    0    12.011         -1.233565814790244          2.038611388908651          3.765372294307580
   2 C     6.0000    0    12.011         -1.833892452253298          1.113350423407112          1.130557666907958
   3 N     7.0000    0    14.007          0.515531996315059         -0.000437334392855          0.019467081899682
   4 C     6.0000    0    12.011          0.133461587690100         -1.481288620905155         -2.305010672977264
   5 C     6.0000    0    12.011          0.093923549216788         -0.126744789668370         -4.770738836574203
   6 C     6.0000    0    12.011          2.293282079436719         -1.775985783046332         -4.083100789077430
   7 H     1.0000    0     1.008          0.348799424200287          0.367487267158840          6.693694224521105
   8 H     1.0000    0     1.008         -3.004161178314472          2.551875550409889          4.703162105393626
   9 H     1.0000    0     1.008         -0.026686301188638          3.725881003650597          3.702824624725084
  10 H     1.0000    0     1.008         -2.513028923237434          2.607090447476281         -0.111622891843285
  11 H     1.0000    0     1.008         -3.220302969594155         -0.409546379918444          1.194432332051528
  12 H     1.0000    0     1.008          1.292418217572349         -1.094902529462531          1.426637848678642
  13 H     1.0000    0     1.008          1.795150238501883          1.405600023599818         -0.322693053700955
  14 H     1.0000    0     1.008         -1.138363774875925         -3.048007326816949         -1.971271985452117
  15 H     1.0000    0     1.008          0.399470291617764          1.900115884048006         -4.774125633139001
  16 H     1.0000    0     1.008         -1.241159412280987         -0.774745717626851         -6.176539960479022
  17 H     1.0000    0     1.008          4.066254596639489         -0.854457521290150         -3.629708105941220
  18 H     1.0000    0     1.008          2.504187051138698         -3.592707768984160         -4.996450079765623

--------------------------------
INTERNAL COORDINATES (ANGSTROEM)
--------------------------------
 O      0   0   0   0.000000     0.000     0.000
 C      1   0   0   1.409531     0.000     0.000
 C      2   1   0   1.511516   105.029     0.000
 N      3   2   1   1.496256   108.388   310.400
 C      4   3   2   1.472416   115.076   167.210
 C      5   4   3   1.488876   118.544    85.714
 C      5   4   3   1.488604   118.579   155.691
 H      1   2   3   0.961206   111.061   184.295
 H      2   1   3   1.094501   112.659   118.014
 H      2   1   3   1.098263   111.537   239.721
 H      3   2   1   1.089064   113.017   189.673
 H      3   2   1   1.090340   110.625    66.538
 H      4   3   2   1.029047   105.623    44.297
 H      4   3   2   1.022208   109.470   290.735
 H      5   4   3   1.082362   110.900   300.563
 H      6   5   4   1.084689   118.386     1.647
 H      6   5   4   1.081728   117.339   218.172
 H      7   5   4   1.084260   118.515   358.622
 H      7   5   4   1.081797   117.046   141.786

---------------------------
INTERNAL COORDINATES (A.U.)
---------------------------
 O      0   0   0   0.000000     0.000     0.000
 C      1   0   0   2.663627     0.000     0.000
 C      2   1   0   2.856352   105.029     0.000
 N      3   2   1   2.827515   108.388   310.400
 C      4   3   2   2.782462   115.076   167.210
 C      5   4   3   2.813568   118.544    85.714
 C      5   4   3   2.813054   118.579   155.691
 H      1   2   3   1.816416   111.061   184.295
 H      2   1   3   2.068308   112.659   118.014
 H      2   1   3   2.075415   111.537   239.721
 H      3   2   1   2.058033   113.017   189.673
 H      3   2   1   2.060444   110.625    66.538
 H      4   3   2   1.944617   105.623    44.297
 H      4   3   2   1.931693   109.470   290.735
 H      5   4   3   2.045368   110.900   300.563
 H      6   5   4   2.049764   118.386     1.647
 H      6   5   4   2.044169   117.339   218.172
 H      7   5   4   2.048954   118.515   358.622
 H      7   5   4   2.044301   117.046   141.786



           ************************************************************
           *        Program running with 8 parallel MPI-processes     *
           *              working on a common directory               *
           ************************************************************
           ************************************************************
           *              Shut down parallel processing               *
           ************************************************************


           ************************************************************
           *        Program running with 8 parallel MPI-processes     *
           *              working on a common directory               *
           ************************************************************

Diagonalization of the overlap matrix:
Smallest eigenvalue                        ... 1.614e-04
Time for diagonalization                   ...    0.335 sec
Threshold for overlap eigenvalues          ... 1.000e-08
Number of eigenvalues below threshold      ... 0
Time for construction of square roots      ...    0.020 sec
Total time needed                          ...    0.355 sec

-------------------
DFT GRID GENERATION
-------------------

General Integration Accuracy     IntAcc      ...  4.340
Radial Grid Type                 RadialGrid  ... Gauss-Chebyshev
Angular Grid (max. acc.)         AngularGrid ... Lebedev-194
Angular grid pruning method      GridPruning ... 3 (G Style)
Weight generation scheme         WeightScheme... Becke
Basis function cutoff            BFCut       ...    1.0000e-11
Integration weight cutoff        WCut        ...    1.0000e-14
Grids for H and He will be reduced by one unit

# of grid points (after initial pruning)     ...  41422 (   0.0 sec)
# of grid points (after weights+screening)   ...  37915 (   0.1 sec)
nearest neighbour list constructed           ...    0.0 sec
Grid point re-assignment to atoms done       ...    0.0 sec
Grid point division into batches done        ...    0.1 sec
Reduced shell lists constructed in    0.2 sec

Total number of grid points                  ...    37915
Total number of batches                      ...      603
Average number of points per batch           ...       62
Average number of grid points per atom       ...     1996
Average number of shells per batch           ...    89.64 (71.71%)
Average number of basis functions per batch  ...   210.13 (72.71%)
Average number of large shells per batch     ...    71.30 (79.54%)
Average number of large basis fcns per batch ...   164.94 (78.49%)
Maximum spatial batch extension              ...   9.08, 11.18,  4.74 au
Average spatial batch extension              ...   0.18,  0.19,  0.17 au

Time for grid setup =    0.668 sec

--------------
SCF ITERATIONS
--------------
ITER       Energy         Delta-E        Max-DP      RMS-DP      [F,P]     Damp
               ***  Starting incremental Fock matrix formation  ***
                      *** Initiating the SOSCF procedure ***
                      *** Re-Reading the Fockian *** 
                      *** Removing any level shift *** 
ITER      Energy       Delta-E        Grad      Rot      Max-DP    RMS-DP
  0   -327.20290367 -327.2029036705  0.000163  0.000163  0.000453  0.000009
               *** Restarting incremental Fock matrix formation ***
  1   -327.20290622  -0.0000025480  0.000035  0.000067  0.000194  0.000003
  2   -327.20290644  -0.0000002210  0.000012  0.000031  0.000043  0.000001
  3   -327.20290644   0.0000000022  0.000014  0.000015  0.000016  0.000000
                  ***Gradient check signals convergence***
              ***Rediagonalizing the Fockian in SOSCF/NRSCF***

               *****************************************************
               *                     SUCCESS                       *
               *           SCF CONVERGED AFTER   4 CYCLES          *
               *****************************************************

Setting up the final grid:

General Integration Accuracy     IntAcc      ...  5.010
Radial Grid Type                 RadialGrid  ... Gauss-Chebyshev
Angular Grid (max. acc.)         AngularGrid ... Lebedev-434
Angular grid pruning method      GridPruning ... 3 (G Style)
Weight generation scheme         WeightScheme... Becke
Basis function cutoff            BFCut       ...    1.0000e-11
Integration weight cutoff        WCut        ...    1.0000e-14
Grids for H and He will be reduced by one unit

# of grid points (after initial pruning)     ... 155226 (   0.0 sec)
# of grid points (after weights+screening)   ... 140266 (   1.0 sec)
nearest neighbour list constructed           ...    0.0 sec
Grid point re-assignment to atoms done       ...    0.0 sec
Grid point division into batches done        ...    1.1 sec
Reduced shell lists constructed in    1.5 sec

Total number of grid points                  ...   140266
Total number of batches                      ...     2199
Average number of points per batch           ...       63
Average number of grid points per atom       ...     7382
Average number of shells per batch           ...    88.66 (70.92%)
Average number of basis functions per batch  ...   207.50 (71.80%)
Average number of large shells per batch     ...    69.87 (78.81%)
Average number of large basis fcns per batch ...   161.44 (77.80%)
Maximum spatial batch extension              ...   8.30, 12.53,  5.38 au
Average spatial batch extension              ...   0.12,  0.12,  0.11 au

Final grid set up in    3.3 sec
Final integration                            ... done (   1.2 sec)
Change in XC energy                          ...     0.000490811
Integrated number of electrons               ...    56.000034937
Previous integrated no of electrons          ...    56.000653148
Total Energy       :         -327.20241564 Eh           -8903.63038 eV
  Last Energy change         ...   -1.3596e-08  Tolerance :   1.0000e-08
  Last MAX-Density change    ...    7.9869e-06  Tolerance :   1.0000e-07
             **** THE GBW FILE WAS UPDATED (6742_+.gbw) ****
             **** DENSITY FILE WAS UPDATED (6742_+.scfp.tmp) ****
[...]
     18       0.093478  -0.044144  -0.000490   0.000005   0.000038   0.000130
     19      -0.042176   0.019631   0.000056   0.000006  -0.000024  -0.000017
     20      -0.033386   0.015612  -0.000920  -0.000007  -0.000026  -0.000018
     21      -0.004464  -0.002978  -0.004411  -0.003947   0.001436  -0.000604
     22       0.010866   0.005095   0.013670   0.004956   0.003428  -0.000552
     23      -0.003382  -0.002647  -0.002280  -0.002982  -0.000661   0.000314
     24       0.133836   0.231612   0.003066   0.314426   0.777073  -0.157409
     25       0.346229   0.587514   0.012336  -0.068805  -0.218476   0.044540
     26       0.036874   0.049366   0.000841  -0.161806  -0.429578   0.092327
     27      -0.289821  -0.484708  -0.013765  -0.556151   0.186490  -0.060267
     28       0.198743   0.327453   0.006240  -0.742685   0.266242  -0.081996
     29       0.137846   0.282417   0.001410   0.024634   0.001949  -0.001645
     30      -0.072877   0.011271   0.012981  -0.008026  -0.029914  -0.185990
     31      -0.019891  -0.039934  -0.007202   0.017325   0.076130   0.438022
     32       0.020478  -0.034828  -0.004407  -0.006526  -0.058905  -0.356989
     33      -0.088146  -0.029843  -0.001466   0.037879  -0.132961  -0.514796
     34       0.083263   0.020707   0.004312   0.038352  -0.148261  -0.573380
     35       0.035994   0.004429   0.002326  -0.005384   0.010171   0.031072
     36       0.034183  -0.021772  -0.585375   0.004634   0.001915   0.005468
     37      -0.030828   0.052126  -0.455323  -0.004970  -0.004943  -0.008883
     38      -0.061295   0.059597  -0.010908   0.003564   0.002678   0.014275
     39       0.032033   0.039354  -0.381525  -0.004783   0.003681   0.007836
     40       0.015666  -0.067794   0.258526  -0.001180   0.003861   0.014195
     41       0.080923  -0.090270  -0.478782   0.004497  -0.002648  -0.001027
     42      -0.009362   0.008044   0.000662  -0.000991   0.001896   0.007461
     43      -0.108994   0.063817   0.000394  -0.001527   0.002279   0.007679
     44      -0.244380   0.141968  -0.000371  -0.000290  -0.000526  -0.003317
     45       0.222975  -0.103115   0.017375   0.000073  -0.000088  -0.000481
     46       0.018554  -0.011050   0.003992  -0.000028  -0.000389  -0.002998
     47       0.301134  -0.135242   0.029996  -0.000002  -0.000103  -0.000107
     48       0.004194  -0.000028   0.003156  -0.000005   0.000124   0.001045
     49      -0.352255   0.161666  -0.033998  -0.000047   0.000067   0.000367
     50       0.070785  -0.031588   0.009862   0.000095   0.000161   0.000767
     51      -0.152952   0.062837  -0.003890   0.000052  -0.000709  -0.002220
     52       0.310422  -0.134567   0.006090   0.000097  -0.000362  -0.001043
     53       0.198424  -0.083528  -0.000587  -0.000031  -0.000042   0.000017
     54      -0.366260   0.156067  -0.003868  -0.000103   0.000048   0.000082
     55      -0.090339   0.041825  -0.003328   0.000139   0.000157  -0.000031
     56      -0.042194   0.018358   0.004687   0.000138  -0.000114  -0.000551
                 48         49         50         51         52         53    
      0      -0.000007  -0.000000  -0.000202   0.000011  -0.000009   0.000001
      1       0.000001   0.000003   0.000327  -0.000003   0.000008  -0.000002
      2      -0.000009  -0.000011  -0.000488  -0.000016  -0.000000   0.000008
      3       0.000081  -0.000041  -0.004431   0.000138   0.000024   0.000006
      4       0.000088  -0.000010  -0.004643   0.000067  -0.000017  -0.000012
      5      -0.000002   0.000020   0.000771  -0.000048   0.000012  -0.000000
      6       0.000331   0.000118  -0.011433  -0.000976  -0.000127  -0.000045
      7       0.001177  -0.000381  -0.085238  -0.001169  -0.000469  -0.000007
      8      -0.000465   0.000425   0.042491   0.000178   0.000092  -0.000111
      9      -0.000123   0.000125  -0.000119   0.002178   0.000313  -0.000077
     10      -0.000027   0.000059   0.002678   0.002271  -0.000287  -0.000358
     11      -0.000009  -0.000401  -0.001753  -0.000042   0.000128  -0.000411
     12      -0.000078   0.001163   0.000896  -0.053802  -0.000700   0.005997
     13       0.000527  -0.000489   0.001019  -0.066329  -0.000457   0.007327
     14      -0.001627  -0.003750  -0.000340   0.014562   0.000137  -0.001891
     15       0.017779   0.011058   0.000291   0.003335  -0.039606   0.035298
     16      -0.049391  -0.024010  -0.000389   0.007831  -0.050195   0.045218
     17       0.029776   0.016723   0.000481   0.002539  -0.036681   0.032287
     18       0.026661  -0.060472   0.000661   0.005694   0.022742   0.024877
     19      -0.003023   0.012884  -0.000366   0.005774   0.056504   0.061187
     20      -0.002206   0.007332  -0.000174   0.002941   0.028466   0.030543
     21      -0.000019  -0.000037   0.000354   0.000162  -0.000031   0.000019
     22      -0.000051  -0.000034   0.001661  -0.000015   0.000027  -0.000007
     23      -0.000070  -0.000101   0.000256  -0.000006  -0.000021   0.000008
     24      -0.000480   0.000243   0.017571   0.000151   0.000045   0.000030
     25       0.000160  -0.000041  -0.003865  -0.000229  -0.000022  -0.000022
     26       0.000335  -0.000139  -0.010180  -0.000631  -0.000166  -0.000069
     27      -0.000637   0.000137   0.035866  -0.000139   0.000099  -0.000003
     28      -0.000842   0.000239   0.048620  -0.000185   0.000148  -0.000032
     29      -0.000033   0.000016   0.002365   0.000674   0.000056  -0.000061
     30       0.002971  -0.002168  -0.259846  -0.001351  -0.001370   0.000515
     31      -0.006751   0.004832   0.575849   0.002766   0.002388  -0.000732
     32       0.006303  -0.004003  -0.484444  -0.002389  -0.001703   0.000373
     33      -0.006856   0.001263   0.401120   0.012661   0.001958  -0.000570
     34      -0.007191   0.000693   0.436087   0.011274   0.002597   0.000039
     35       0.000220  -0.000400  -0.013202  -0.001997  -0.000110   0.000483
     36       0.000266   0.000868   0.005106  -0.002616   0.001086  -0.000476
     37       0.001434  -0.000490  -0.013352   0.000727   0.000288   0.000135
     38      -0.001779   0.002879   0.022881  -0.007150   0.001522  -0.001126
     39       0.002395  -0.000526  -0.007640  -0.024697   0.001951   0.002311
     40      -0.000164   0.001931  -0.018797  -0.023782  -0.000580   0.000737
     41       0.001656   0.003485  -0.000480   0.012582   0.000371  -0.004328
     42       0.000828   0.010372  -0.008856   0.614199   0.002271  -0.069497
     43       0.002262   0.011342  -0.010112   0.759904   0.009168  -0.084763
     44      -0.001570  -0.004908   0.003394  -0.154958  -0.002535   0.019622
     45       0.120666   0.057677   0.001113  -0.005855   0.060914  -0.053205
     46       0.741016   0.340179   0.007150  -0.048635   0.388829  -0.372613
     47       0.005788   0.004379  -0.000142  -0.005218  -0.003095   0.001759
     48      -0.323381  -0.160054  -0.005268  -0.042259   0.403694  -0.358276
     49      -0.171161  -0.088114  -0.002647  -0.019345   0.199456  -0.173638
     50      -0.338333  -0.169604  -0.005682  -0.041334   0.429694  -0.376132
     51      -0.307778   0.625705  -0.006645  -0.042998  -0.320590  -0.369617
     52      -0.164690   0.341236  -0.003700  -0.023470  -0.168901  -0.189588
     53      -0.079927   0.164654  -0.001967  -0.016861  -0.078986  -0.093961
     54      -0.019675   0.038816  -0.001020   0.005788   0.056287   0.061803
     55       0.209541  -0.469570   0.008551  -0.049135  -0.493475  -0.529476
     56       0.104119  -0.237739   0.004200  -0.022225  -0.251780  -0.265775
                  54         55         56    
      0       0.000086   0.000027  -0.012877
      1      -0.000147  -0.000106  -0.010914
      2       0.000385   0.000119  -0.060584
      3      -0.000200   0.000251   0.000360
      4       0.000542   0.000627  -0.001256
      5      -0.000471   0.000009  -0.000593
      6       0.002567  -0.001100   0.000167
      7      -0.002607  -0.002220   0.000055
      8       0.000589   0.000782   0.000227
      9       0.037757  -0.038674  -0.000008
     10      -0.027909  -0.060171  -0.000079
     11       0.045432   0.024259   0.000330
     12       0.000768  -0.002020  -0.000017
     13       0.001841  -0.002601  -0.000053
     14       0.000185   0.000332  -0.000051
     15      -0.000369   0.000130   0.000016
     16      -0.000338   0.000412  -0.000002
     17      -0.000749  -0.000237   0.000005
     18      -0.000381   0.000235  -0.000007
     19      -0.000081   0.000154   0.000022
     20       0.000246  -0.000047  -0.000002
     21       0.001436   0.000442   0.196226
     22      -0.002691  -0.000723   0.193798
     23      -0.001985  -0.001657   0.959134
     24       0.005042   0.001014   0.001743
     25      -0.003582  -0.000957  -0.001857
     26       0.000399  -0.000568   0.002530
     27      -0.001309  -0.002600   0.000630
     28      -0.004396  -0.003607  -0.003605
     29       0.000725   0.001563   0.002162
     30      -0.013486  -0.003387   0.000287
     31       0.023135   0.010268  -0.000794
     32      -0.012922  -0.006379   0.000906
     33      -0.005416   0.019452  -0.000063
     34      -0.001548   0.015757   0.000131
     35       0.000991  -0.003769   0.000033
     36      -0.387722  -0.102601  -0.001305
     37       0.576249   0.122397   0.000798
     38      -0.674284  -0.154263  -0.002302
     39      -0.147752   0.634506   0.000720
     40      -0.181409   0.712404   0.000578
     41       0.052323  -0.181453  -0.000626
     42      -0.008319   0.019867   0.000003
     43      -0.010415   0.026371  -0.000047
     44      -0.000351  -0.001298   0.000107
     45      -0.000186   0.001274   0.000053
     46       0.000796  -0.001543   0.000089
     47       0.000736  -0.001162  -0.000066
     48       0.001568  -0.000878  -0.000050
     49       0.001028  -0.000305  -0.000018
     50      -0.000841   0.000428   0.000030
     51       0.001943   0.000243   0.000071
     52       0.001321   0.001463   0.000016
     53       0.001719  -0.001192  -0.000012
     54      -0.000242  -0.000520  -0.000021
     55      -0.000662  -0.000479  -0.000074
     56      -0.001562   0.000756   0.000055


-----------
IR SPECTRUM
-----------

 Mode    freq (cm**-1)   T**2         TX         TY         TZ
-------------------------------------------------------------------
   6:        60.84    3.481558  ( -1.337543  -1.212403  -0.471823)
   7:        82.91    3.737556  (  0.875837  -1.503052  -0.843385)
   8:       168.57    5.987183  ( -0.840940  -1.015020   2.061489)
   9:       184.89   15.984663  (  2.500097   1.800791  -2.547809)
  10:       275.53   49.655643  (  5.921551   3.725731  -0.842496)
  11:       304.17   77.643113  (  7.692996   3.234327  -2.828436)
  12:       387.78   19.384072  ( -0.537175   0.041437   4.369645)
  13:       433.65    4.372410  ( -1.713712   0.980093  -0.689216)
  14:       527.01   11.183890  ( -2.193063   2.076295  -1.436442)
  15:       757.08    0.134314  ( -0.349601  -0.048639  -0.098627)
  16:       796.89    6.407787  ( -0.766945  -1.758725   1.651202)
  17:       839.77   13.820509  ( -2.996132   2.186027   0.254931)
  18:       856.27    1.838031  (  0.633478   0.434448  -1.117136)
  19:       888.46   15.950593  ( -0.465862  -2.488192   3.089088)
  20:       928.42    0.722508  (  0.453521  -0.608257  -0.383210)
  21:       986.30    8.614122  ( -1.037275  -0.251915   2.733993)
  22:      1008.94    2.087466  (  0.623024  -0.332795   1.260379)
  23:      1051.78   57.359427  ( -4.287047   5.088239  -3.618077)
  24:      1074.56   13.309799  ( -1.559932  -1.320883   3.021867)
  25:      1083.56    6.786609  ( -0.387094   0.741025   2.467316)
  26:      1102.17    3.318423  (  1.213520  -0.829481  -1.075990)
  27:      1124.91   11.883240  (  1.025088  -1.824613   2.739201)
  28:      1134.60   21.625616  ( -2.301516   3.664222  -1.703560)
  29:      1173.48    6.624094  (  0.767058  -1.570697   1.889081)
  30:      1192.91    0.501943  ( -0.532778   0.466994  -0.002546)
  31:      1218.55   23.825786  (  0.407914  -2.392847   4.234817)
  32:      1251.18    3.261322  (  1.074714   0.940022  -1.105744)
  33:      1263.93    2.431472  (  0.000646   1.505288   0.406914)
  34:      1300.62   49.403114  (  3.084260  -6.312294  -0.213057)
  35:      1346.37   25.230104  (  2.128616  -3.540941  -2.856718)
  36:      1378.99   18.332881  ( -1.264857  -0.801519   4.011307)
  37:      1423.39   57.659494  (  3.390747  -3.612070  -5.754587)
  38:      1444.86   34.164449  (  2.097284  -3.266926  -4.369558)
  39:      1454.04    2.477280  ( -0.526880   0.956135   1.133792)
  40:      1464.43    9.947531  ( -1.899040   0.876912  -2.360552)
  41:      1486.74   16.439044  ( -2.089911  -1.119264  -3.289158)
  42:      1513.65    8.372986  ( -1.081169  -0.282971   2.669080)
  43:      1518.84    3.399940  (  1.196491   1.373756   0.284855)
  44:      1652.21   44.096844  ( -5.761812  -1.505130  -2.938188)
  45:      3022.86   24.739141  (  0.714364   4.843843  -0.875218)
  46:      3087.38    6.644951  ( -2.523183   0.218002   0.480596)
  47:      3111.65    1.222535  (  0.907792   0.336464   0.534078)
  48:      3155.29    0.736277  (  0.148479  -0.600804  -0.594362)
  49:      3159.70    3.584537  ( -0.233262  -1.047181  -1.559980)
  50:      3176.16    0.283933  ( -0.006548  -0.506403   0.165669)
  51:      3211.65    0.532099  (  0.299576   0.608582   0.268293)
  52:      3244.66    0.148824  (  0.314396  -0.222152   0.025049)
  53:      3255.86    0.788868  ( -0.387679  -0.688936  -0.404896)
  54:      3364.45  110.436305  ( -3.470980   2.898779  -9.486078)
  55:      3466.78   48.563981  (  3.362276   5.013554  -3.481861)
  56:      3869.27  131.167191  (  2.787243  -0.097545  11.108058)

The first frequency considered to be a vibration is 6
The total number of vibrations considered is 51


--------------------------
THERMOCHEMISTRY AT 298.15K
--------------------------

Temperature         ... 298.15 K
Pressure            ... 1.00 atm
Total Mass          ... 102.16 AMU

Throughout the following assumptions are being made:
  (1) The electronic state is orbitally nondegenerate
  (2) There are no thermally accessible electronically excited states
  (3) Hindered rotations indicated by low frequency modes) are not
      treated as such but are treated as vibrations and this may
      case some error
  (4) All equations used are the standard statistical mechanics
      equations for an ideal gas
  (5) All vibrations are strinctly harmonic


------------
INNER ENERGY
------------

The inner energy is: U= E(el) + E(ZPE) + E(vib) + E(rot) + E(trans)
    E(el)   - is the total energy from the electronic structure calculation
              = E(kin-el) + E(nuc-el) + E(el-el) + E(nuc-nuc)
    E(ZPE)  - the the zero temperature vibrational energy from the frequency calculation
    E(vib)  - the the finite temperature correction to E(ZPE) due to population
              of excietd vibrational states
    E(rot)  - is the rotational thermal energy
    E(trans)- is the translational thermal energy

Summary of contributions to the inner energy U:
Electronic energy                ...   -327.20241585 Eh
Zero point energy                ...      0.17603165 Eh     110.46 kcal/mol
Thermal vibrational correction   ...      0.00523105 Eh       3.28 kcal/mol
Thermal rotational correction    ...      0.00141627 Eh       0.89 kcal/mol
Thermal translational correction ...      0.00141627 Eh       0.89 kcal/mol
-----------------------------------------------------------------------
Total thermal energy                   -327.01832061 Eh


Summary of corrections to the electronic energy:
(perhaps to be used in another calculation)
Total thermal correction                  0.00806360 Eh       5.06 kcal/mol
Non-thermal (ZPE) correction              0.17603165 Eh     110.46 kcal/mol
-----------------------------------------------------------------------
Total correction                          0.18409524 Eh     115.52 kcal/mol


--------
ENTHALPY
--------

The enthalpy is H = U + kB*T
                kB is Boltzmann's constant
Total free energy                 ...   -327.01832061 Eh 
Thermal Enthalpy correction       ...      0.00094421 Eh       0.59 kcal/mol
-----------------------------------------------------------------------
Total Enthalpy                    ...   -327.01737640 Eh


-------
ENTROPY
-------

The entropy contributions are T*S = T*(S(el)+S(vib)+S(rot)+S(trans)
     S(el)   - electronic entropy
     S(vib)  - vibrational entropy
     S(rot)  - rotational entropy
     S(trans)- translational entropy
The entropies will be listed as mutliplied by the temperature to get
units of energy

Electronic entropy                ...      0.00000000 Eh      0.00 kcal/mol
Vibrational entropy               ...      0.00968739 Eh      6.08 kcal/mol
Rotational entropy                ...      0.01220354 Eh      7.66 kcal/mol
Translational entropy             ...      0.01890147 Eh     11.86 kcal/mol
-----------------------------------------------------------------------
Final entropy term                ...      0.04079240 Eh     25.60 kcal/mol


CAUTION: The rotational entropy is not quite correctly treated here
         because it includes a symmetry number that is not yet correctly
         implemented in ORCA!
For a nonlinear molecule the correct rotational entropy is:
    S(rot) = R*(ln(qrot/sn)+1.5)
    R    = 8.31441 J/mol/K = 1.987191683e-3 kcal/mol/K
    qrot = 274749.2965787
    sn is the rotational symmetry number. We have assumed 3 here
       if it is different for your molecule then you should correct
       the printed rotational entropy by manually evaluating the equation
       as given above

For convenience we print out the resulting values for sn=1 - 12:
 sn= 1  qrot/sn=  274749.2966 T*S(rot)=     8.31 kcal/mol T*S(tot)=    26.25 kcal/mol
 sn= 2  qrot/sn=  137374.6483 T*S(rot)=     7.90 kcal/mol T*S(tot)=    25.84 kcal/mol
 sn= 3  qrot/sn=   91583.0989 T*S(rot)=     7.66 kcal/mol T*S(tot)=    25.60 kcal/mol
 sn= 4  qrot/sn=   68687.3241 T*S(rot)=     7.49 kcal/mol T*S(tot)=    25.43 kcal/mol
 sn= 5  qrot/sn=   54949.8593 T*S(rot)=     7.36 kcal/mol T*S(tot)=    25.29 kcal/mol
 sn= 6  qrot/sn=   45791.5494 T*S(rot)=     7.25 kcal/mol T*S(tot)=    25.19 kcal/mol
 sn= 7  qrot/sn=   39249.8995 T*S(rot)=     7.16 kcal/mol T*S(tot)=    25.10 kcal/mol
 sn= 8  qrot/sn=   34343.6621 T*S(rot)=     7.08 kcal/mol T*S(tot)=    25.02 kcal/mol
 sn= 9  qrot/sn=   30527.6996 T*S(rot)=     7.01 kcal/mol T*S(tot)=    24.95 kcal/mol
 sn=10  qrot/sn=   27474.9297 T*S(rot)=     6.94 kcal/mol T*S(tot)=    24.88 kcal/mol
 sn=11  qrot/sn=   24977.2088 T*S(rot)=     6.89 kcal/mol T*S(tot)=    24.83 kcal/mol
 sn=12  qrot/sn=   22895.7747 T*S(rot)=     6.84 kcal/mol T*S(tot)=    24.78 kcal/mol


-------------------
GIBBS FREE ENTHALPY
-------------------

The Gibbs free enthalpy is G = H - T*S

Total enthalpy                    ...   -327.01737640 Eh 
Total entropy correction          ...     -0.04079240 Eh    -25.60 kcal/mol
-----------------------------------------------------------------------
Final Gibbs free enthalpy         ...   -327.05816880 Eh

For completeness - the Gibbs free enthalpy minus the electronic energy
G-E(el)                           ...      0.14424705 Eh     90.52 kcal/mol


Timings for individual modules:

Sum of individual times         ...     2373.294 sec (=  39.555 min)
GTO integral calculation        ...        8.469 sec (=   0.141 min)   0.4 %
SCF iterations                  ...      205.138 sec (=   3.419 min)   8.6 %
SCF Gradient evaluation         ...      105.582 sec (=   1.760 min)   4.4 %
Geometry relaxation             ...        0.242 sec (=   0.004 min)   0.0 %
Analytical frequency calculation...     2053.864 sec (=  34.231 min)  86.5 %
                             ****ORCA TERMINATED NORMALLY****
TOTAL RUN TIME: 0 days 0 hours 39 minutes 34 seconds 973 msec
