
                                 *****************
                                 * O   R   C   A *
                                 *****************

           --- An Ab Initio, DFT and Semiempirical electronic structure package ---

                  #######################################################
                  #                        -***-                        #
                  #  Department of molecular theory and spectroscopy    #
                  #              Directorship: Frank Neese              #
                  # Max Planck Institute for Chemical Energy Conversion #
                  #                  D-45470 Muelheim/Ruhr              #
                  #                       Germany                       #
                  #                                                     #
                  #                  All rights reserved                #
                  #                        -***-                        #
                  #######################################################


                         Program Version 3.0.3 - RELEASE   -


 With contributions from (in alphabetic order):
   Ute Becker             : Parallelization
   Dmytro Bykov           : SCF Hessian
   Dmitry Ganyushin       : Spin-Orbit,Spin-Spin,Magnetic field MRCI
   Andreas Hansen         : Spin unrestricted coupled pair/coupled cluster methods
   Dimitrios Liakos       : Extrapolation schemes; parallel MDCI
   Robert Izsak           : Overlap fitted RIJCOSX, COSX-SCS-MP3
   Christian Kollmar      : KDIIS, OOCD, Brueckner-CCSD(T), CCSD density
   Simone Kossmann        : Meta GGA functionals, TD-DFT gradient, OOMP2, MP2 Hessian
   Taras Petrenko         : DFT Hessian,TD-DFT gradient, ASA and ECA modules, normal mode analysis, Resonance Raman, ABS, FL, XAS/XES, NRVS
   Christoph Reimann      : Effective Core Potentials
   Michael Roemelt        : Restricted open shell CIS
   Christoph Riplinger    : Improved optimizer, TS searches, QM/MM, DLPNO-CCSD
   Barbara Sandhoefer     : DKH picture change effects
   Igor Schapiro          : Molecular dynamics
   Kantharuban Sivalingam : CASSCF convergence, NEVPT2
   Boris Wezisla          : Elementary symmetry handling
   Frank Wennmohs         : Technical directorship


 We gratefully acknowledge several colleagues who have allowed us to
 interface, adapt or use parts of their codes:
   Stefan Grimme, W. Hujo, H. Kruse, T. Risthaus : VdW corrections, initial TS optimization,
                                                   DFT functionals, gCP
   Ed Valeev                                     : LibInt (2-el integral package), F12 methods
   Garnet Chan, S. Sharma, R. Olivares           : DMRG
   Ulf Ekstrom                                   : XCFun DFT Library
   Mihaly Kallay                                 : mrcc  (arbitrary order and MRCC methods)
   Andreas Klamt, Michael Diedenhofen            : otool_cosmo (COSMO solvation model)
   Frank Weinhold                                : gennbo (NPA and NBO analysis)
   Christopher J. Cramer and Donald G. Truhlar   : smd solvation model


 Your calculation uses the libint2 library for the computation of 2-el integrals
 For citations please refer to: http://libint.valeyev.net

 This ORCA versions uses:
   CBLAS   interface :  Fast vector & matrix operations
   LAPACKE interface :  Fast linear algebra routines
   SCALAPACK package :  Parallel linear algebra routines


Your calculation utilizes the basis: Ahlrichs-TZV
Cite in your paper:
H - Kr: A. Schaefer, H. Horn and R. Ahlrichs, J. Chem. Phys. 97, 2571 (1992).

The def2-TZV basis will be loaded
Cite in your paper:
 	F. Weigend, R. Ahlrichs, Phys. Chem. Chem. Phys. 2005, 7, 3297.

================================================================================
                                        WARNINGS
                       Please study these warnings very carefully!
================================================================================
Now building the actual basis set
WARNING: Geometry optimizations can change the point-group symmetry!

WARNING: Geometry Optimization
  ===> : Switching off AutoStart
         For restart on a previous wavefunction, please use MOREAD


INFO   : the flag for use of LIBINT has been found!

================================================================================
                                       INPUT FILE
================================================================================
NAME = 7054_+.inp
|  1> ! NORI PBE0 def2-TZVP UseSym TightOPT Freq TightSCF Grid3 FinalGrid5 XYZFile
|  2> % pal
|  3>     nprocs 8
|  4> end
|  5> %method
|  6>     SymThresh 5.0e-2
|  7> end
|  8> % geom 
|  9>     MaxIter 10
| 10> end 
| 11> % maxcore 2000
| 12> % output
| 13>     printlevel mini
| 14>     print[ P_Basis ] 0
| 15>     print[ P_SCFInfo ] 1
| 16>     print[ P_SCFIterInfo ] 1
| 17>     print[ P_OrbEn ] 0
| 18>     print[ P_Cartesian ] 0
| 19> end
| 20> % elprop
| 21>     Dipole false
| 22> end
| 23> *xyz 1 1
| 24>  C        1.0136887966    -0.0579034296     0.5095615524 
| 25>  N        2.3772647879     0.0369491456    -0.0864022681 
| 26>  C        3.2097682444     1.1740774590     0.4631997264 
| 27>  S        4.1608566408    -0.0164063029     1.4674002663 
| 28>  O        3.5612878664    -0.1363019407     2.7518329349 
| 29>  O        5.5571577670     0.0513950751     1.2411814077 
| 30>  C        3.2923005161    -1.1073330301     0.2904304921 
| 31>  H        0.5221078437    -0.9434406537     0.1094568859 
| 32>  H        0.4554243092     0.8380367018     0.2411863758 
| 33>  H        1.1174465885    -0.1339204491     1.5913433997 
| 34>  H        2.2901506179     0.1106864225    -1.1003486630 
| 35>  H        2.6216274546     1.9086453054     1.0090321542 
| 36>  H        3.8219869037     1.6218540109    -0.3186875362 
| 37>  H        3.9300751908    -1.3887005459    -0.5465218332 
| 38>  H        2.7611164726    -1.9555277684     0.7169551050 
| 39> *
| 40> 
| 41>                          ****END OF INPUT****
================================================================================
---------------------
ASYMMETRIC UNIT IN Cs
---------------------
  #  AT     MASS              COORDS (A.U.)             BAS
   0 C   12.0110  -4.44690568  -1.51208032   0.00000000   0
   1 N   14.0070  -2.81787402   0.78716990   0.00000000   0
   2 C   12.0110  -0.95161806   0.88612254   2.16319878   0
   3 S   32.0600   1.58353833  -0.00000000   0.00000000   0
   4 O   15.9990   1.86214950  -2.67373714   0.00000000   0
   5 O   15.9990   3.62538908   1.72984444   0.00000000   0
   7 H    1.0080  -5.62250696  -1.48071155  -1.68901827   0
   9 H    1.0080  -3.22616360  -3.16975760   0.00000000   0
  10 H    1.0080  -3.94567717   2.35112107   0.00000000   0
  11 H    1.0080  -1.38516368  -0.45036222   3.66390039   0
  12 H    1.0080  -0.72677312   2.81192554   2.85452329   0


                       *****************************
                       * Geometry Optimization Run *
                       *****************************

Geometry optimization settings:
Update method            Update   .... BFGS
Choice of coordinates    CoordSys .... Redundant Internals
Initial Hessian          InHess   .... Almoef's Model

Convergence Tolerances:
Energy Change            TolE     ....  1.0000e-06 Eh
Max. Gradient            TolMAXG  ....  1.0000e-04 Eh/bohr
RMS Gradient             TolRMSG  ....  3.0000e-05 Eh/bohr
Max. Displacement        TolMAXD  ....  1.0000e-03 bohr
RMS Displacement         TolRMSD  ....  6.0000e-04 bohr

------------------------------------------------------------------------------
                        ORCA OPTIMIZATION COORDINATE SETUP
------------------------------------------------------------------------------

The optimization will be done in new redundant internal coordinates
Making redundant internal coordinates   ...  (new redundants) done
Evaluating the initial hessian          ...  (Almloef) done
Evaluating the coordinates              ...  done
Calculating the B-matrix                .... done
Calculating the G-matrix                .... done
Diagonalizing the G-matrix              .... done
The first mode is                       ....   51
The number of degrees of freedom        ....   39

    -----------------------------------------------------------------
                    Redundant Internal Coordinates


    -----------------------------------------------------------------
         Definition                    Initial Value    Approx d2E/dq
    -----------------------------------------------------------------
      1. B(N   1,C   0)                  1.4911         0.385929   
      2. B(C   2,N   1)                  1.5128         0.356473   
      3. B(S   3,C   2)                  1.8248         0.341007   
      4. B(O   4,S   3)                  1.4225         1.338829   
      5. B(O   5,S   3)                  1.4161         1.370730   
      6. B(C   6,S   3)                  1.8248         0.341007   
      7. B(C   6,N   1)                  1.5128         0.356473   
      8. B(H   7,C   0)                  1.0891         0.361288   
      9. B(H   8,C   0)                  1.0891         0.361288   
     10. B(H   9,C   0)                  1.0894         0.360896   
     11. B(H  10,N   1)                  1.0203         0.416565   
     12. B(H  11,C   2)                  1.0879         0.362922   
     13. B(H  12,C   2)                  1.0893         0.361050   
     14. B(H  13,C   6)                  1.0893         0.361050   
     15. B(H  14,C   6)                  1.0879         0.362922   
     16. A(N   1,C   0,H   8)          108.5289         0.324283   
     17. A(N   1,C   0,H   7)          108.5289         0.324283   
     18. A(N   1,C   0,H   9)          108.3136         0.324225   
     19. A(H   7,C   0,H   8)          110.3030         0.291141   
     20. A(H   8,C   0,H   9)          110.5475         0.291091   
     21. A(H   7,C   0,H   9)          110.5475         0.291091   
     22. A(C   2,N   1,C   6)           98.3498         0.353191   
     23. A(C   0,N   1,C   6)          113.9322         0.357982   
     24. A(C   6,N   1,H  10)          110.7181         0.324879   
     25. A(C   2,N   1,H  10)          110.7181         0.324879   
     26. A(C   0,N   1,H  10)          108.8859         0.329156   
     27. A(C   0,N   1,C   2)          113.9322         0.357982   
     28. A(H  11,C   2,H  12)          112.7112         0.291317   
     29. A(S   3,C   2,H  12)          111.7638         0.335840   
     30. A(N   1,C   2,H  12)          110.9671         0.320058   
     31. A(N   1,C   2,S   3)           89.7916         0.371236   
     32. A(S   3,C   2,H  11)          116.4813         0.336129   
     33. A(N   1,C   2,H  11)          113.0920         0.320329   
     34. A(C   2,S   3,O   4)          109.3765         0.497032   
     35. A(O   4,S   3,O   5)          124.3222         0.644133   
     36. A(O   5,S   3,C   6)          113.2549         0.499213   
     37. A(O   4,S   3,C   6)          109.3765         0.497032   
     38. A(C   2,S   3,C   6)           77.7024         0.390514   
     39. A(C   2,S   3,O   5)          113.2549         0.499213   
     40. A(H  13,C   6,H  14)          112.7112         0.291317   
     41. A(S   3,C   6,H  14)          116.4813         0.336129   
     42. A(N   1,C   6,H  14)          113.0920         0.320329   
     43. A(S   3,C   6,H  13)          111.7638         0.335840   
     44. A(N   1,C   6,H  13)          110.9671         0.320058   
     45. A(N   1,C   6,S   3)           89.7916         0.371236   
     46. D(C   6,N   1,C   0,H   8)    175.9386         0.013629   
     47. D(C   6,N   1,C   0,H   9)     55.8821         0.013629   
     48. D(C   2,N   1,C   0,H   8)     64.1744         0.013629   
     49. D(C   6,N   1,C   0,H   7)    -64.1744         0.013629   
     50. D(H  10,N   1,C   0,H   9)    180.0000         0.013629   
     51. D(C   2,N   1,C   0,H   7)   -175.9386         0.013629   
     52. D(C   2,N   1,C   0,H   9)    -55.8821         0.013629   
     53. D(H  10,N   1,C   0,H   8)    -59.9435         0.013629   
     54. D(H  10,N   1,C   0,H   7)     59.9435         0.013629   
     55. D(H  11,C   2,N   1,C   6)   -136.0838         0.011692   
     56. D(S   3,C   2,N   1,H  10)   -133.1527         0.011692   
     57. D(S   3,C   2,N   1,C   0)    103.7216         0.011692   
     58. D(H  12,C   2,N   1,H  10)    -19.8442         0.011692   
     59. D(H  11,C   2,N   1,H  10)    107.9528         0.011692   
     60. D(H  12,C   2,N   1,C   6)     96.1191         0.011692   
     61. D(H  12,C   2,N   1,C   0)   -142.9699         0.011692   
     62. D(S   3,C   2,N   1,C   6)    -17.1894         0.011692   
     63. D(H  11,C   2,N   1,C   0)    -15.1729         0.011692   
     64. D(C   6,S   3,C   2,H  11)    130.2370         0.003685   
     65. D(C   6,S   3,C   2,N   1)     14.3643         0.003685   
     66. D(O   5,S   3,C   2,H  12)     12.0441         0.003685   
     67. D(O   5,S   3,C   2,H  11)   -119.5110         0.003685   
     68. D(O   4,S   3,C   2,H  11)     23.7806         0.003685   
     69. D(O   4,S   3,C   2,N   1)    -92.0922         0.003685   
     70. D(O   5,S   3,C   2,N   1)    124.6162         0.003685   
     71. D(C   6,S   3,C   2,H  12)    -98.2079         0.003685   
     72. D(O   4,S   3,C   2,H  12)    155.3357         0.003685   
     73. D(H  13,C   6,N   1,C   0)    142.9699         0.011692   
     74. D(S   3,C   6,N   1,H  10)    133.1527         0.011692   
     75. D(S   3,C   6,N   1,C   2)     17.1894         0.011692   
     76. D(S   3,C   6,N   1,C   0)   -103.7216         0.011692   
     77. D(H  14,C   6,S   3,O   5)    119.5110         0.003685   
     78. D(H  14,C   6,S   3,O   4)    -23.7806         0.003685   
     79. D(H  13,C   6,S   3,O   5)    -12.0441         0.003685   
     80. D(H  13,C   6,S   3,O   4)   -155.3357         0.003685   
     81. D(H  13,C   6,S   3,C   2)     98.2079         0.003685   
     82. D(N   1,C   6,S   3,O   5)   -124.6162         0.003685   
     83. D(N   1,C   6,S   3,O   4)     92.0922         0.003685   
     84. D(N   1,C   6,S   3,C   2)    -14.3643         0.003685   
     85. D(H  14,C   6,N   1,H  10)   -107.9528         0.011692   
     86. D(H  14,C   6,N   1,C   2)    136.0838         0.011692   
     87. D(H  14,C   6,S   3,C   2)   -130.2370         0.003685   
     88. D(H  14,C   6,N   1,C   0)     15.1729         0.011692   
     89. D(H  13,C   6,N   1,H  10)     19.8442         0.011692   
     90. D(H  13,C   6,N   1,C   2)    -96.1191         0.011692   
    -----------------------------------------------------------------

Number of atoms                         .... 15
Number of degrees of freedom            .... 90

         *************************************************************
         *                GEOMETRY OPTIMIZATION CYCLE   1            *
         *************************************************************


           ************************************************************
           *        Program running with 8 parallel MPI-processes     *
           *              working on a common directory               *
           ************************************************************
           ************************************************************
           *              Shut down parallel processing               *
           ************************************************************


           ************************************************************
           *        Program running with 8 parallel MPI-processes     *
           *              working on a common directory               *
           ************************************************************
------------
SCF SETTINGS
------------
Hamiltonian:
 Density Functional     Method          .... DFT(GTOs)
 Exchange Functional    Exchange        .... PBE
   PBE kappa parameter  XKappa          ....  0.804000
 Correlation Functional Correlation     .... PBE
 LDA part of GGA corr.  LDAOpt          .... PW91-LDA
 Gradients option       PostSCFGGA      .... off
 Hybrid DFT is turned on
   Fraction HF Exchange ScalHFX         ....  0.250000
   Scaling of DF-GGA-X  ScalDFX         ....  0.750000
   Scaling of DF-GGA-C  ScalDFC         ....  1.000000
   Scaling of DF-LDA-C  ScalLDAC        ....  1.000000
   Perturbative correction              ....  0.000000
   NL short-range parameter             ....  6.900000


General Settings:
 Integral files         IntName         .... 7054_+
 Hartree-Fock type      HFTyp           .... RHF
 Total Charge           Charge          ....    1
 Multiplicity           Mult            ....    1
 Number of Electrons    NEL             ....   64
 Basis Dimension        Dim             ....  271
 Nuclear Repulsion      ENuc            ....    445.5192977729 Eh

 Symmetry handling      UseSym         .... ON
 Point group                           .... Cs
 Used point group                      .... Cs
 Number of irreps                      .... 2
   Irrep   A' has  168 symmetry adapted basis functions (ofs=   0)
   Irrep   A" has  103 symmetry adapted basis functions (ofs= 168)

Convergence Acceleration:
 DIIS                   CNVDIIS         .... on
   Start iteration      DIISMaxIt       ....    12
   Startup error        DIISStart       ....  0.200000
   # of expansion vecs  DIISMaxEq       ....     5
   Bias factor          DIISBfac        ....   1.050
   Max. coefficient     DIISMaxC        ....  10.000
 Newton-Raphson         CNVNR           .... off
 SOSCF                  CNVSOSCF        .... on
   Start iteration      SOSCFMaxIt      ....   150
   Startup grad/error   SOSCFStart      ....  0.003300
 Level Shifting         CNVShift        .... on
   Level shift para.    LevelShift      ....    0.2500
   Turn off err/grad.   ShiftErr        ....    0.0010
 Zerner damping         CNVZerner       .... off
 Static damping         CNVDamp         .... on
   Fraction old density DampFac         ....    0.7000
   Max. Damping (<1)    DampMax         ....    0.9800
   Min. Damping (>=0)   DampMin         ....    0.0000
   Turn off err/grad.   DampErr         ....    0.1000
 Fernandez-Rico         CNVRico         .... off

SCF Procedure:
 Maximum # iterations   MaxIter         ....   125
 SCF integral mode      SCFMode         .... Direct
   Integral package                     .... LIBINT
 Reset frequeny         DirectResetFreq ....    20
 Integral Threshold     Thresh          ....  2.500e-11 Eh
 Primitive CutOff       TCut            ....  2.500e-12 Eh

Convergence Tolerance:
 Convergence Check Mode ConvCheckMode   .... Total+1el-Energy
 Energy Change          TolE            ....  1.000e-08 Eh
 1-El. energy change                    ....  1.000e-05 Eh
 Orbital Gradient       TolG            ....  1.000e-05
 Orbital Rotation angle TolX            ....  1.000e-05
 DIIS Error             TolErr          ....  5.000e-07


Diagonalization of the overlap matrix:
Smallest eigenvalue                        ... 6.071e-04
Time for diagonalization                   ...    0.034 sec
Threshold for overlap eigenvalues          ... 1.000e-08
Number of eigenvalues below threshold      ... 0
Time for construction of square roots      ...    0.013 sec
Producing symmetrization matrix            ... done (   0.007 sec)
Total time needed                          ...    0.054 sec

-------------------
DFT GRID GENERATION
-------------------

General Integration Accuracy     IntAcc      ...  4.340
Radial Grid Type                 RadialGrid  ... Gauss-Chebyshev
Angular Grid (max. acc.)         AngularGrid ... Lebedev-194
Angular grid pruning method      GridPruning ... 3 (G Style)
Weight generation scheme         WeightScheme... Becke
Basis function cutoff            BFCut       ...    1.0000e-11
Integration weight cutoff        WCut        ...    1.0000e-14
Grids for H and He will be reduced by one unit

# of grid points (after initial pruning)     ...  35708 (   0.0 sec)
# of grid points (after weights+screening)   ...  32966 (   0.0 sec)
nearest neighbour list constructed           ...    0.0 sec
Grid point re-assignment to atoms done       ...    0.0 sec
Grid point division into batches done        ...    0.1 sec
Reduced shell lists constructed in    0.1 sec

Total number of grid points                  ...    32966
Total number of batches                      ...      522
Average number of points per batch           ...       63
Average number of grid points per atom       ...     2198
Average number of shells per batch           ...    88.64 (79.86%)
Average number of basis functions per batch  ...   220.97 (81.54%)
Average number of large shells per batch     ...    74.88 (84.48%)
Average number of large basis fcns per batch ...   187.30 (84.76%)
Maximum spatial batch extension              ...   2.60,  1.90,  2.24 au
Average spatial batch extension              ...   0.15,  0.15,  0.15 au

Time for grid setup =    0.215 sec

Loading Hartree-Fock densities                     ... done
Calculating cut-offs                               ... done
Setting up the integral package                    ... done
Initializing the effective Hamiltonian             ... done
Starting the Coulomb interaction                   ... done (   0.0 sec)
Reading the grid                                   ... done
Mapping shells                                     ... done
Starting the XC term evaluation                    ... done (   0.2 sec)
  promolecular density results
     # of electrons  =     64.998569032
     EX              =    -65.611202903
     EC              =     -2.293631740
     EX+EC           =    -67.904834643
done (   0.0 sec)
Diagonalizing the Hamiltonian                      ... done (   0.0 sec)
Back transforming the eigenvectors                 ... done (   0.0 sec)
Now organizing SCF variables                       ... done
The symmetry of the initial guess is 1-A'
Irrep occupations for operator 0
    A' -   23
    A" -    9
--------------
SCF ITERATIONS
--------------
ITER       Energy         Delta-E        Max-DP      RMS-DP      [F,P]     Damp
               ***  Starting incremental Fock matrix formation  ***
  0   -721.5927668804   0.000000000000 0.14446521  0.00170667  0.2771761 0.7000
  1   -721.6770357577  -0.084268877286 0.01354691  0.00032938  0.0491488 0.7000
                               ***Turning on DIIS***
  2   -721.7294710011  -0.052435243430 0.02455617  0.00064904  0.0243524 0.0000
  3   -721.8452276964  -0.115756695290 0.00895650  0.00025022  0.0174554 0.0000
  4   -721.8468731879  -0.001645491562 0.00697386  0.00006941  0.0049680 0.0000
                      *** Initiating the SOSCF procedure ***
                           *** Shutting down DIIS ***
                      *** Re-Reading the Fockian *** 
                      *** Removing any level shift *** 
ITER      Energy       Delta-E        Grad      Rot      Max-DP    RMS-DP
  5   -721.84706376  -0.0001905738  0.000370  0.000370  0.003052  0.000021
               *** Restarting incremental Fock matrix formation ***
  6   -721.84707079  -0.0000070331  0.000370  0.002890  0.003378  0.000041
  7   -721.84701952   0.0000512747  0.001958  0.003289  0.001761  0.000042
  8   -721.84707241  -0.0000528892  0.000364  0.002079  0.002544  0.000043
  9   -721.84705669   0.0000157176  0.000761  0.001537  0.001884  0.000032
 10   -721.84707435  -0.0000176587  0.000164  0.001098  0.000889  0.000021
 11   -721.84706770   0.0000066519  0.000858  0.000958  0.000688  0.000016
 12   -721.84707459  -0.0000068894  0.000044  0.000471  0.000320  0.000008
 13   -721.84707437   0.0000002175  0.000101  0.000326  0.000227  0.000006
 14   -721.84707465  -0.0000002805  0.000008  0.000096  0.000068  0.000002
 15   -721.84707463   0.0000000159  0.000025  0.000082  0.000055  0.000001
 16   -721.84707465  -0.0000000193  0.000003  0.000019  0.000033  0.000001
 17   -721.84707465   0.0000000006  0.000004  0.000013  0.000020  0.000000
                  ***Gradient check signals convergence***
              ***Rediagonalizing the Fockian in SOSCF/NRSCF***

               *****************************************************
               *                     SUCCESS                       *
               *           SCF CONVERGED AFTER  18 CYCLES          *
               *****************************************************

Setting up the final grid:

General Integration Accuracy     IntAcc      ...  5.010
Radial Grid Type                 RadialGrid  ... Gauss-Chebyshev
Angular Grid (max. acc.)         AngularGrid ... Lebedev-434
Angular grid pruning method      GridPruning ... 3 (G Style)
Weight generation scheme         WeightScheme... Becke
Basis function cutoff            BFCut       ...    1.0000e-11
Integration weight cutoff        WCut        ...    1.0000e-14
Grids for H and He will be reduced by one unit

# of grid points (after initial pruning)     ... 129644 (   0.0 sec)
# of grid points (after weights+screening)   ... 118384 (   0.1 sec)
nearest neighbour list constructed           ...    0.0 sec
Grid point re-assignment to atoms done       ...    0.0 sec
Grid point division into batches done        ...    0.9 sec
Reduced shell lists constructed in    1.2 sec

Total number of grid points                  ...   118384
Total number of batches                      ...     1858
Average number of points per batch           ...       63
Average number of grid points per atom       ...     7892
Average number of shells per batch           ...    87.69 (79.00%)
Average number of basis functions per batch  ...   219.25 (80.90%)
Average number of large shells per batch     ...    73.28 (83.57%)
Average number of large basis fcns per batch ...   183.15 (83.53%)
Maximum spatial batch extension              ...   1.91,  2.30,  1.88 au
Average spatial batch extension              ...   0.10,  0.10,  0.10 au

Final grid set up in    1.3 sec
Final integration                            ... done (   0.7 sec)
Change in XC energy                          ...     0.000327404
Integrated number of electrons               ...    64.000054326
Previous integrated no of electrons          ...    64.000907361
Total Energy       :         -721.84674725 Eh          -19642.44860 eV
  Last Energy change         ...   -7.0463e-10  Tolerance :   1.0000e-08
  Last MAX-Density change    ...    9.3862e-06  Tolerance :   1.0000e-07
             **** THE GBW FILE WAS UPDATED (7054_+.gbw) ****
             **** DENSITY FILE WAS UPDATED (7054_+.scfp.tmp) ****
             **** ENERGY FILE WAS UPDATED (7054_+.en.tmp) ****
Total SCF time: 0 days 0 hours 1 min 42 sec 
           ************************************************************
           *              Shut down parallel processing               *
           ************************************************************

-------------------------   --------------------
FINAL SINGLE POINT ENERGY      -721.846747249996
-------------------------   --------------------



           ************************************************************
           *        Program running with 8 parallel MPI-processes     *
           *              working on a common directory               *
           ************************************************************
------------------------------------------------------------------------------
                         ORCA SCF GRADIENT CALCULATION
------------------------------------------------------------------------------

Gradient of the Kohn-Sham DFT energy:
Kohn-Sham wavefunction type      ... RKS
Hartree-Fock exchange scaling    ...    0.250
Number of operators              ...    1
Number of atoms                  ...   15
Basis set dimensions             ...  271
Integral neglect threshold       ... 2.5e-11
Integral primitive cutoff        ... 2.5e-12

Nuclear repulsion gradient       ... done
One Electron Gradient            ... done
Pre-screening matrix             ... done
Starting the two electron gradient:
Two electron gradient done
Exchange-correlation gradient    ... done

------------------
CARTESIAN GRADIENT
------------------

   1   C   :    0.000182523    0.000240864   -0.000000001
   2   N   :    0.000118044   -0.000176786   -0.000000001
   3   C   :   -0.000012000    0.000112171   -0.000038073
   4   S   :    0.000016999   -0.000142067   -0.000000001
   5   O   :   -0.000005385    0.000059835    0.000000001
   6   O   :    0.000030015    0.000070649   -0.000000000
   7   C   :   -0.000012000    0.000112174    0.000038070
   8   H   :   -0.000089147   -0.000002251   -0.000105967
   9   H   :   -0.000089152   -0.000002254    0.000105969
  10   H   :    0.000055678   -0.000082517   -0.000000000
  11   H   :   -0.000086726   -0.000013805    0.000000001
  12   H   :   -0.000063819   -0.000048108    0.000050353
  13   H   :    0.000009394   -0.000039897   -0.000005571
  14   H   :    0.000009394   -0.000039899    0.000005572
  15   H   :   -0.000063818   -0.000048109   -0.000050354

Norm of the cartesian gradient     ...    0.000521628
RMS gradient                       ...    0.000077760
MAX gradient                       ...    0.000240864

-------
TIMINGS
-------

Total SCF gradient time            ...       31.660 sec

One electron gradient       ....       0.106 sec  (  0.3%)
Prescreening matrices       ....       0.456 sec  (  1.4%)
Two electron gradient       ....      27.232 sec  ( 86.0%)
XC gradient                 ....       3.218 sec  ( 10.2%)
           ************************************************************
           *              Shut down parallel processing               *
           ************************************************************
------------------------------------------------------------------------------
                         ORCA GEOMETRY RELAXATION STEP
------------------------------------------------------------------------------

Reading the OPT-File                    .... done
Getting information on internals        .... done
Copying old internal coords+grads       .... done
Making the new internal coordinates     .... (new redundants).... done
Validating the new internal coordinates .... (new redundants).... done
Calculating the B-matrix                .... done
Calculating the G,G- and P matrices     .... done
Transforming gradient to internals      .... done
Projecting the internal gradient        .... done
Number of atoms                         ....  15
Number of internal coordinates          ....  90
Current Energy                          ....  -721.846747250 Eh
Current gradient norm                   ....     0.000521628 Eh/bohr
Maximum allowed component of the step   ....  0.300
Current trust radius                    ....  0.300
Evaluating the initial hessian          ....  (Almloef) done
Projecting the Hessian                  .... done
Forming the augmented Hessian           .... done
Diagonalizing the augmented Hessian     .... done
Last element of RFO vector              ....  0.999998469
Lowest eigenvalues of augmented Hessian:
 -0.000000408  0.009113170  0.013628793  0.049054876  0.053076340
Length of the computed step             ....  0.001749810
The final length of the internal step   ....  0.001749810
Converting the step to cartesian space:
 Initial RMS(Int)=    0.0001844462
Transforming coordinates:
 Iter   0:  RMS(Cart)=    0.0002919812 RMS(Int)=    0.0001844456
 Iter   1:  RMS(Cart)=    0.0000000324 RMS(Int)=    0.0000000211
done
Storing new coordinates                 .... done

                                .--------------------.
          ----------------------|Geometry convergence|---------------------
          Item                value                 Tolerance   Converged
          -----------------------------------------------------------------
          RMS gradient        0.00003600            0.00003000      NO
          MAX gradient        0.00016150            0.00010000      NO
          RMS step            0.00018445            0.00060000      YES
          MAX step            0.00042783            0.00100000      YES
          ....................................................
          Max(Bonds)      0.0002      Max(Angles)    0.02
          Max(Dihed)        0.02      Max(Improp)    0.00
          -----------------------------------------------------------------

The optimization has not yet converged - more geometry cycles are needed


    ---------------------------------------------------------------------------
                         Redundant Internal Coordinates
                            (Angstroem and degrees)

        Definition                    Value    dE/dq     Step     New-Value
    ----------------------------------------------------------------------------
     1. B(N   1,C   0)                1.4911 -0.000162  0.0002    1.4914   
     2. B(C   2,N   1)                1.5128 -0.000034  0.0001    1.5128   
     3. B(S   3,C   2)                1.8248  0.000026 -0.0001    1.8248   
     4. B(O   4,S   3)                1.4225 -0.000059  0.0000    1.4226   
     5. B(O   5,S   3)                1.4161  0.000068 -0.0000    1.4161   
     6. B(C   6,S   3)                1.8248  0.000026 -0.0001    1.8248   
     7. B(C   6,N   1)                1.5128 -0.000034  0.0001    1.5128   
     8. B(H   7,C   0)                1.0891  0.000138 -0.0002    1.0889   
     9. B(H   8,C   0)                1.0891  0.000138 -0.0002    1.0889   
    10. B(H   9,C   0)                1.0894  0.000099 -0.0001    1.0893   
    11. B(H  10,N   1)                1.0203  0.000040 -0.0001    1.0203   
    12. B(H  11,C   2)                1.0879  0.000082 -0.0001    1.0878   
    13. B(H  12,C   2)                1.0893 -0.000038  0.0001    1.0893   
    14. B(H  13,C   6)                1.0893 -0.000038  0.0001    1.0893   
    15. B(H  14,C   6)                1.0879  0.000082 -0.0001    1.0878   
    16. A(N   1,C   0,H   8)          108.53  0.000010   -0.00    108.53   
    17. A(N   1,C   0,H   7)          108.53  0.000010   -0.00    108.53   
    18. A(N   1,C   0,H   9)          108.31  0.000005   -0.00    108.31   
    19. A(H   7,C   0,H   8)          110.30 -0.000015    0.00    110.31   
    20. A(H   8,C   0,H   9)          110.55 -0.000004    0.00    110.55   
    21. A(H   7,C   0,H   9)          110.55 -0.000004    0.00    110.55   
    22. A(C   2,N   1,C   6)           98.35  0.000021   -0.01     98.34   
    23. A(C   0,N   1,C   6)          113.93  0.000004   -0.00    113.93   
    24. A(C   6,N   1,H  10)          110.72  0.000002   -0.01    110.71   
    25. A(C   2,N   1,H  10)          110.72  0.000002   -0.01    110.71   
    26. A(C   0,N   1,H  10)          108.89 -0.000028    0.02    108.90   
    27. A(C   0,N   1,C   2)          113.93  0.000004   -0.00    113.93   
    28. A(H  11,C   2,H  12)          112.71 -0.000001   -0.00    112.71   
    29. A(S   3,C   2,H  12)          111.76 -0.000002    0.00    111.77   
    30. A(N   1,C   2,H  12)          110.97  0.000006   -0.01    110.96   
    31. A(N   1,C   2,S   3)           89.79 -0.000002    0.00     89.79   
    32. A(S   3,C   2,H  11)          116.48  0.000016   -0.01    116.47   
    33. A(N   1,C   2,H  11)          113.09 -0.000017    0.01    113.10   
    34. A(C   2,S   3,O   4)          109.38 -0.000001   -0.00    109.37   
    35. A(O   4,S   3,O   5)          124.32  0.000011   -0.00    124.32   
    36. A(O   5,S   3,C   6)          113.25 -0.000002    0.00    113.26   
    37. A(O   4,S   3,C   6)          109.38 -0.000001   -0.00    109.37   
    38. A(C   2,S   3,C   6)           77.70 -0.000017    0.00     77.70   
    39. A(C   2,S   3,O   5)          113.25 -0.000002    0.00    113.26   
    40. A(H  13,C   6,H  14)          112.71 -0.000001   -0.00    112.71   
    41. A(S   3,C   6,H  14)          116.48  0.000016   -0.01    116.47   
    42. A(N   1,C   6,H  14)          113.09 -0.000017    0.01    113.10   
    43. A(S   3,C   6,H  13)          111.76 -0.000002    0.00    111.77   
    44. A(N   1,C   6,H  13)          110.97  0.000006   -0.01    110.96   
    45. A(N   1,C   6,S   3)           89.79 -0.000002    0.00     89.79   
    46. D(C   6,N   1,C   0,H   8)    175.94  0.000019   -0.01    175.93   
    47. D(C   6,N   1,C   0,H   9)     55.88  0.000016   -0.01     55.88   
    48. D(C   2,N   1,C   0,H   8)     64.17 -0.000013    0.01     64.18   
    49. D(C   6,N   1,C   0,H   7)    -64.17  0.000013   -0.01    -64.18   
    50. D(H  10,N   1,C   0,H   9)    180.00 -0.000000   -0.00    180.00   
    51. D(C   2,N   1,C   0,H   7)   -175.94 -0.000019    0.01   -175.93   
    52. D(C   2,N   1,C   0,H   9)    -55.88 -0.000016    0.01    -55.88   
    53. D(H  10,N   1,C   0,H   8)    -59.94  0.000003   -0.00    -59.95   
    54. D(H  10,N   1,C   0,H   7)     59.94 -0.000003    0.00     59.95   
    55. D(H  11,C   2,N   1,C   6)   -136.08 -0.000017   -0.00   -136.08   
    56. D(S   3,C   2,N   1,H  10)   -133.15 -0.000018    0.01   -133.15   
    57. D(S   3,C   2,N   1,C   0)    103.72  0.000015   -0.01    103.71   
    58. D(H  12,C   2,N   1,H  10)    -19.84 -0.000020    0.01    -19.84   
    59. D(H  11,C   2,N   1,H  10)    107.95 -0.000031    0.01    107.97   
    60. D(H  12,C   2,N   1,C   6)     96.12 -0.000006   -0.00     96.11   
    61. D(H  12,C   2,N   1,C   0)   -142.97  0.000013   -0.01   -142.98   
    62. D(S   3,C   2,N   1,C   6)    -17.19 -0.000004   -0.01    -17.20   
    63. D(H  11,C   2,N   1,C   0)    -15.17  0.000002   -0.01    -15.18   
    64. D(C   6,S   3,C   2,H  11)    130.24 -0.000019    0.02    130.26   
    65. D(C   6,S   3,C   2,N   1)     14.36 -0.000001    0.01     14.37   
    66. D(O   5,S   3,C   2,H  12)     12.04 -0.000015    0.02     12.06   
    67. D(O   5,S   3,C   2,H  11)   -119.51 -0.000027    0.02   -119.49   
    68. D(O   4,S   3,C   2,H  11)     23.78 -0.000013    0.02     23.80   
    69. D(O   4,S   3,C   2,N   1)    -92.09  0.000005    0.01    -92.08   
    70. D(O   5,S   3,C   2,N   1)    124.62 -0.000009    0.01    124.63   
    71. D(C   6,S   3,C   2,H  12)    -98.21 -0.000007    0.01    -98.20   
    72. D(O   4,S   3,C   2,H  12)    155.34 -0.000001    0.01    155.35   
    73. D(H  13,C   6,N   1,C   0)    142.97 -0.000013    0.01    142.98   
    74. D(S   3,C   6,N   1,H  10)    133.15  0.000018   -0.01    133.15   
    75. D(S   3,C   6,N   1,C   2)     17.19  0.000004    0.01     17.20   
    76. D(S   3,C   6,N   1,C   0)   -103.72 -0.000015    0.01   -103.71   
    77. D(H  14,C   6,S   3,O   5)    119.51  0.000027   -0.02    119.49   
    78. D(H  14,C   6,S   3,O   4)    -23.78  0.000013   -0.02    -23.80   
    79. D(H  13,C   6,S   3,O   5)    -12.04  0.000015   -0.02    -12.06   
    80. D(H  13,C   6,S   3,O   4)   -155.34  0.000001   -0.01   -155.35   
    81. D(H  13,C   6,S   3,C   2)     98.21  0.000007   -0.01     98.20   
    82. D(N   1,C   6,S   3,O   5)   -124.62  0.000009   -0.01   -124.63   
    83. D(N   1,C   6,S   3,O   4)     92.09 -0.000005   -0.01     92.08   
    84. D(N   1,C   6,S   3,C   2)    -14.36  0.000001   -0.01    -14.37   
    85. D(H  14,C   6,N   1,H  10)   -107.95  0.000031   -0.01   -107.97   
    86. D(H  14,C   6,N   1,C   2)    136.08  0.000017    0.00    136.08   
    87. D(H  14,C   6,S   3,C   2)   -130.24  0.000019   -0.02   -130.26   
    88. D(H  14,C   6,N   1,C   0)     15.17 -0.000002    0.01     15.18   
    89. D(H  13,C   6,N   1,H  10)     19.84  0.000020   -0.01     19.84   
    90. D(H  13,C   6,N   1,C   2)    -96.12  0.000006    0.00    -96.11   
    ----------------------------------------------------------------------------

         *************************************************************
         *                GEOMETRY OPTIMIZATION CYCLE   2            *
         *************************************************************
---------------------------------
CARTESIAN COORDINATES (ANGSTROEM)
---------------------------------
  C     -2.353321   -0.800390   -0.000000
  N     -1.491304    0.416613   -0.000000
  C     -0.503568    0.469020    1.144683
  S      0.837865   -0.000052    0.000000
  O      0.985049   -1.414982   -0.000000
  O      1.918556    0.915078    0.000000
  C     -0.503568    0.469020   -1.144683
  H     -2.975276   -0.783863   -0.893647
  H     -2.975276   -0.783863    0.893647
  H     -1.707282   -1.677377    0.000000
  H     -2.087925    1.244293   -0.000000
  H     -0.732695   -0.238068    1.938875
  H     -0.384585    1.488214    1.510395
  H     -0.384585    1.488214   -1.510395
  H     -0.732695   -0.238068   -1.938875

----------------------------
CARTESIAN COORDINATES (A.U.)
----------------------------
  NO LB      ZA    FRAG    MASS        X           Y           Z
   0 C     6.0000    0    12.011         -4.447133058326608         -1.512517264803587         -0.000000002399995
   1 N     7.0000    0    14.007         -2.818156193058370          0.787284630710826         -0.000000006261249
   2 C     6.0000    0    12.011         -0.951605107653206          0.886318834745146          2.163137328626644
   3 S    16.0000    0    32.060          1.583335625904720         -0.000097911727724          0.000000005216672
   4 O     8.0000    0    15.999          1.861472263417242         -2.673928978356210         -0.000000018229546
   5 O     8.0000    0    15.999          3.625545257461715          1.729246020654376          0.000000013993532
   6 C     6.0000    0    12.011         -0.951605099064301          0.886318839095457         -2.163137326272119
   7 H     1.0000    0     1.008         -5.622457189934581         -1.481286089518996         -1.688748010706576
   8 H     1.0000    0     1.008         -5.622457138688813         -1.481286046477363          1.688748022994876
   9 H     1.0000    0     1.008         -3.226294579386546         -3.169783970378621          0.000000004430551
  10 H     1.0000    0     1.008         -3.945605687731150          2.351373415832374         -0.000000012807505
  11 H     1.0000    0     1.008         -1.384592777810509         -0.449883618466694          3.663943571899751
  12 H     1.0000    0     1.008         -0.726760372950364          2.812317360824809          2.854233090705741
  13 H     1.0000    0     1.008         -0.726760363433797          2.812317371286522         -2.854233091916794
  14 H     1.0000    0     1.008         -1.384592770906481         -0.449883611198733         -3.663943569273983

--------------------------------
INTERNAL COORDINATES (ANGSTROEM)
--------------------------------
 C      0   0   0   0.000000     0.000     0.000
 N      1   0   0   1.491365     0.000     0.000
 C      2   1   0   1.512835   113.932     0.000
 S      3   2   1   1.824766    89.795   103.708
 O      4   3   2   1.422565   109.374   267.917
 O      4   3   2   1.416105   113.259   124.628
 C      2   1   3   1.512835   113.932   111.750
 H      1   2   3   1.088901   108.527   184.070
 H      1   2   3   1.088901   108.527    64.180
 H      1   2   3   1.089254   108.312   304.125
 H      2   1   3   1.020299   108.904   235.875
 H      3   2   1   1.087757   113.104   344.820
 H      3   2   1   1.089339   110.962   217.018
 H      7   2   1   1.089339   110.962   142.982
 H      7   2   1   1.087757   113.104    15.180

---------------------------
INTERNAL COORDINATES (A.U.)
---------------------------
 C      0   0   0   0.000000     0.000     0.000
 N      1   0   0   2.818272     0.000     0.000
 C      2   1   0   2.858843   113.932     0.000
 S      3   2   1   3.448307    89.795   103.708
 O      4   3   2   2.688258   109.374   267.917
 O      4   3   2   2.676051   113.259   124.628
 C      2   1   3   2.858843   113.932   111.750
 H      1   2   3   2.057725   108.527   184.070
 H      1   2   3   2.057725   108.527    64.180
 H      1   2   3   2.058392   108.312   304.125
 H      2   1   3   1.928086   108.904   235.875
 H      3   2   1   2.055562   113.104   344.820
 H      3   2   1   2.058553   110.962   217.018
 H      7   2   1   2.058553   110.962   142.982
 H      7   2   1   2.055562   113.104    15.180



           ************************************************************
           *        Program running with 8 parallel MPI-processes     *
           *              working on a common directory               *
           ************************************************************
           ************************************************************
           *              Shut down parallel processing               *
           ************************************************************


           ************************************************************
           *        Program running with 8 parallel MPI-processes     *
           *              working on a common directory               *
           ************************************************************

Diagonalization of the overlap matrix:
Smallest eigenvalue                        ... 6.073e-04
Time for diagonalization                   ...    0.028 sec
Threshold for overlap eigenvalues          ... 1.000e-08
Number of eigenvalues below threshold      ... 0
Time for construction of square roots      ...    0.013 sec
Producing symmetrization matrix            ... done (   0.007 sec)
Total time needed                          ...    0.049 sec

Warning: Geometry matches/Basis set matches and symmetry is to be used
         We proceed in good trust that the input orbitals and irreps are correct
Irrep occupations for operator 0
    A' -   23
    A" -    9
-------------------
DFT GRID GENERATION
-------------------

General Integration Accuracy     IntAcc      ...  4.340
Radial Grid Type                 RadialGrid  ... Gauss-Chebyshev
Angular Grid (max. acc.)         AngularGrid ... Lebedev-194
Angular grid pruning method      GridPruning ... 3 (G Style)
Weight generation scheme         WeightScheme... Becke
Basis function cutoff            BFCut       ...    1.0000e-11
Integration weight cutoff        WCut        ...    1.0000e-14
Grids for H and He will be reduced by one unit

# of grid points (after initial pruning)     ...  35708 (   0.0 sec)
# of grid points (after weights+screening)   ...  32966 (   0.0 sec)
nearest neighbour list constructed           ...    0.0 sec
Grid point re-assignment to atoms done       ...    0.0 sec
Grid point division into batches done        ...    0.1 sec
Reduced shell lists constructed in    0.2 sec

Total number of grid points                  ...    32966
Total number of batches                      ...      523
Average number of points per batch           ...       63
Average number of grid points per atom       ...     2198
Average number of shells per batch           ...    88.78 (79.98%)
Average number of basis functions per batch  ...   221.40 (81.70%)
Average number of large shells per batch     ...    74.97 (84.45%)
Average number of large basis fcns per batch ...   187.63 (84.74%)
Maximum spatial batch extension              ...   2.60,  1.90,  2.24 au
Average spatial batch extension              ...   0.15,  0.15,  0.15 au

Time for grid setup =    0.210 sec

--------------
SCF ITERATIONS
--------------
ITER       Energy         Delta-E        Max-DP      RMS-DP      [F,P]     Damp
               ***  Starting incremental Fock matrix formation  ***
                      *** Initiating the SOSCF procedure ***
                      *** Re-Reading the Fockian *** 
                      *** Removing any level shift *** 
ITER      Energy       Delta-E        Grad      Rot      Max-DP    RMS-DP
  0   -721.84707450 -721.8470745000  0.000045  0.000045  0.000065  0.000002
               *** Restarting incremental Fock matrix formation ***
  1   -721.84707464  -0.0000001373  0.000011  0.000032  0.000047  0.000001
  2   -721.84707462   0.0000000195  0.000025  0.000031  0.000029  0.000001
  3   -721.84707464  -0.0000000237  0.000008  0.000070  0.000052  0.000001
  4   -721.84707461   0.0000000295  0.000033  0.000069  0.000045  0.000001
  5   -721.84707464  -0.0000000310  0.000005  0.000039  0.000029  0.000001
  6   -721.84707463   0.0000000085  0.000017  0.000031  0.000027  0.000001
  7   -721.84707464  -0.0000000086  0.000007  0.000041  0.000019  0.000001
  8   -721.84707464   0.0000000074  0.000019  0.000031  0.000015  0.000001
                  ***Gradient check signals convergence***
              ***Rediagonalizing the Fockian in SOSCF/NRSCF***

               *****************************************************
               *                     SUCCESS                       *
               *           SCF CONVERGED AFTER   9 CYCLES          *
               *****************************************************

Setting up the final grid:

General Integration Accuracy     IntAcc      ...  5.010
Radial Grid Type                 RadialGrid  ... Gauss-Chebyshev
Angular Grid (max. acc.)         AngularGrid ... Lebedev-434
Angular grid pruning method      GridPruning ... 3 (G Style)
Weight generation scheme         WeightScheme... Becke
Basis function cutoff            BFCut       ...    1.0000e-11
Integration weight cutoff        WCut        ...    1.0000e-14
Grids for H and He will be reduced by one unit

# of grid points (after initial pruning)     ... 129644 (   0.0 sec)
# of grid points (after weights+screening)   ... 118384 (   0.1 sec)
nearest neighbour list constructed           ...    0.0 sec
Grid point re-assignment to atoms done       ...    0.0 sec
Grid point division into batches done        ...    0.9 sec
Reduced shell lists constructed in    1.2 sec

Total number of grid points                  ...   118384
Total number of batches                      ...     1858
Average number of points per batch           ...       63
Average number of grid points per atom       ...     7892
Average number of shells per batch           ...    87.70 (79.01%)
Average number of basis functions per batch  ...   219.27 (80.91%)
Average number of large shells per batch     ...    73.29 (83.58%)
Average number of large basis fcns per batch ...   183.24 (83.57%)
Maximum spatial batch extension              ...   2.53,  2.30,  2.14 au
Average spatial batch extension              ...   0.10,  0.10,  0.10 au

Final grid set up in    1.3 sec
Final integration                            ... done (   0.8 sec)
Change in XC energy                          ...     0.000327150
Integrated number of electrons               ...    64.000054452
Previous integrated no of electrons          ...    64.000906165
Total Energy       :         -721.84674749 Eh          -19642.44860 eV
  Last Energy change         ...   -8.0665e-09  Tolerance :   1.0000e-08
  Last MAX-Density change    ...    1.0828e-05  Tolerance :   1.0000e-07
             **** THE GBW FILE WAS UPDATED (7054_+.gbw) ****
             **** DENSITY FILE WAS UPDATED (7054_+.scfp.tmp) ****
             **** ENERGY FILE WAS UPDATED (7054_+.en.tmp) ****
Total SCF time: 0 days 0 hours 0 min 49 sec 
           ************************************************************
           *              Shut down parallel processing               *
           ************************************************************

-------------------------   --------------------
FINAL SINGLE POINT ENERGY      -721.846747494243
-------------------------   --------------------



           ************************************************************
           *        Program running with 8 parallel MPI-processes     *
           *              working on a common directory               *
           ************************************************************
------------------------------------------------------------------------------
                         ORCA SCF GRADIENT CALCULATION
------------------------------------------------------------------------------

Gradient of the Kohn-Sham DFT energy:
Kohn-Sham wavefunction type      ... RKS
Hartree-Fock exchange scaling    ...    0.250
Number of operators              ...    1
Number of atoms                  ...   15
Basis set dimensions             ...  271
Integral neglect threshold       ... 2.5e-11
Integral primitive cutoff        ... 2.5e-12

Nuclear repulsion gradient       ... done
One Electron Gradient            ... done
Pre-screening matrix             ... done
Starting the two electron gradient:
Two electron gradient done
Exchange-correlation gradient    ... done

------------------
CARTESIAN GRADIENT
------------------

   1   C   :    0.000045138    0.000079023    0.000000000
   2   N   :    0.000051035   -0.000045981   -0.000000003
   3   C   :   -0.000013898    0.000027869    0.000003827
   4   S   :    0.000027235   -0.000104779    0.000000005
   5   O   :    0.000003034    0.000036618   -0.000000007
   6   O   :    0.000003544    0.000043190    0.000000003
   7   C   :   -0.000013894    0.000027870   -0.000003828
   8   H   :   -0.000013645   -0.000011894    0.000003496
   9   H   :   -0.000013640   -0.000011891   -0.000003494
  10   H   :   -0.000010804   -0.000014300    0.000000001
  11   H   :   -0.000038118   -0.000020709   -0.000000000
  12   H   :   -0.000023358    0.000002485   -0.000003329
  13   H   :    0.000010363   -0.000004994    0.000005512
  14   H   :    0.000010364   -0.000004994   -0.000005511
  15   H   :   -0.000023357    0.000002486    0.000003329

Norm of the cartesian gradient     ...    0.000185073
RMS gradient                       ...    0.000027589
MAX gradient                       ...    0.000104779

-------
TIMINGS
-------

Total SCF gradient time            ...       32.568 sec

One electron gradient       ....       0.099 sec  (  0.3%)
Prescreening matrices       ....       0.570 sec  (  1.8%)
Two electron gradient       ....      28.083 sec  ( 86.2%)
XC gradient                 ....       3.611 sec  ( 11.1%)
           ************************************************************
           *              Shut down parallel processing               *
           ************************************************************
------------------------------------------------------------------------------
                         ORCA GEOMETRY RELAXATION STEP
------------------------------------------------------------------------------

Reading the OPT-File                    .... done
Getting information on internals        .... done
Copying old internal coords+grads       .... done
Making the new internal coordinates     .... (new redundants).... done
Validating the new internal coordinates .... (new redundants).... done
Calculating the B-matrix                .... done
Calculating the G,G- and P matrices     .... done
Transforming gradient to internals      .... done
Projecting the internal gradient        .... done
Number of atoms                         ....  15
Number of internal coordinates          ....  90
Current Energy                          ....  -721.846747494 Eh
Current gradient norm                   ....     0.000185073 Eh/bohr
Maximum allowed component of the step   ....  0.300
Current trust radius                    ....  0.300
Updating the Hessian (BFGS)             .... done
Forming the augmented Hessian           .... done
Diagonalizing the augmented Hessian     .... done
Last element of RFO vector              ....  0.999999031
Lowest eigenvalues of augmented Hessian:
 -0.000000094  0.008894809  0.013628793  0.047449398  0.049054876
Length of the computed step             ....  0.001392415
The final length of the internal step   ....  0.001392415
Converting the step to cartesian space:
 Initial RMS(Int)=    0.0001467734
Transforming coordinates:
 Iter   0:  RMS(Cart)=    0.0002273816 RMS(Int)=    0.0001467728
 Iter   1:  RMS(Cart)=    0.0000000223 RMS(Int)=    0.0000000155
done
Storing new coordinates                 .... done

                                .--------------------.
          ----------------------|Geometry convergence|---------------------
          Item                value                 Tolerance   Converged
          -----------------------------------------------------------------
          Energy change      -0.00000024            0.00000100      YES
          RMS gradient        0.00001096            0.00003000      YES
          MAX gradient        0.00003878            0.00010000      YES
          RMS step            0.00014677            0.00060000      YES
          MAX step            0.00038386            0.00100000      YES
          ....................................................
          Max(Bonds)      0.0001      Max(Angles)    0.02
          Max(Dihed)        0.02      Max(Improp)    0.00
          -----------------------------------------------------------------

                    ***********************HURRAY********************
                    ***        THE OPTIMIZATION HAS CONVERGED     ***
                    *************************************************


    ---------------------------------------------------------------------------
                         Redundant Internal Coordinates

                          --- Optimized Parameters ---  
                            (Angstroem and degrees)

        Definition                    OldVal   dE/dq     Step     FinalVal
    ----------------------------------------------------------------------------
     1. B(N   1,C   0)                1.4914 -0.000039  0.0001    1.4915   
     2. B(C   2,N   1)                1.5128 -0.000007  0.0000    1.5129   
     3. B(S   3,C   2)                1.8248  0.000020 -0.0001    1.8247   
     4. B(O   4,S   3)                1.4226 -0.000035  0.0000    1.4226   
     5. B(O   5,S   3)                1.4161  0.000030 -0.0000    1.4161   
     6. B(C   6,S   3)                1.8248  0.000020 -0.0001    1.8247   
     7. B(C   6,N   1)                1.5128 -0.000007  0.0000    1.5129   
     8. B(H   7,C   0)                1.0889  0.000005 -0.0000    1.0889   
     9. B(H   8,C   0)                1.0889  0.000005 -0.0000    1.0889   
    10. B(H   9,C   0)                1.0893  0.000004 -0.0000    1.0892   
    11. B(H  10,N   1)                1.0203  0.000006 -0.0000    1.0203   
    12. B(H  11,C   2)                1.0878  0.000001 -0.0000    1.0877   
    13. B(H  12,C   2)                1.0893 -0.000002  0.0000    1.0894   
    14. B(H  13,C   6)                1.0893 -0.000002  0.0000    1.0894   
    15. B(H  14,C   6)                1.0878  0.000001 -0.0000    1.0877   
    16. A(N   1,C   0,H   8)          108.53  0.000016   -0.00    108.52   
    17. A(N   1,C   0,H   7)          108.53  0.000016   -0.00    108.52   
    18. A(N   1,C   0,H   9)          108.31  0.000021   -0.01    108.31   
    19. A(H   7,C   0,H   8)          110.31 -0.000020    0.01    110.31   
    20. A(H   8,C   0,H   9)          110.55 -0.000016    0.00    110.55   
    21. A(H   7,C   0,H   9)          110.55 -0.000016    0.00    110.55   
    22. A(C   2,N   1,C   6)           98.34  0.000001   -0.01     98.33   
    23. A(C   0,N   1,C   6)          113.93  0.000008   -0.00    113.93   
    24. A(C   6,N   1,H  10)          110.71  0.000002   -0.00    110.71   
    25. A(C   2,N   1,H  10)          110.71  0.000002   -0.00    110.71   
    26. A(C   0,N   1,H  10)          108.90 -0.000019    0.02    108.92   
    27. A(C   0,N   1,C   2)          113.93  0.000008   -0.00    113.93   
    28. A(H  11,C   2,H  12)          112.71 -0.000000    0.00    112.71   
    29. A(S   3,C   2,H  12)          111.77 -0.000003    0.00    111.77   
    30. A(N   1,C   2,H  12)          110.96  0.000003   -0.01    110.96   
    31. A(N   1,C   2,S   3)           89.79  0.000004    0.00     89.79   
    32. A(S   3,C   2,H  11)          116.47  0.000006   -0.01    116.46   
    33. A(N   1,C   2,H  11)          113.10 -0.000010    0.01    113.11   
    34. A(C   2,S   3,O   4)          109.37  0.000006   -0.00    109.37   
    35. A(O   4,S   3,O   5)          124.32  0.000007   -0.00    124.32   
    36. A(O   5,S   3,C   6)          113.26 -0.000008    0.01    113.26   
    37. A(O   4,S   3,C   6)          109.37  0.000006   -0.00    109.37   
    38. A(C   2,S   3,C   6)           77.70 -0.000012    0.00     77.71   
    39. A(C   2,S   3,O   5)          113.26 -0.000008    0.01    113.26   
    40. A(H  13,C   6,H  14)          112.71 -0.000000    0.00    112.71   
    41. A(S   3,C   6,H  14)          116.47  0.000006   -0.01    116.46   
    42. A(N   1,C   6,H  14)          113.10 -0.000010    0.01    113.11   
    43. A(S   3,C   6,H  13)          111.77 -0.000003    0.00    111.77   
    44. A(N   1,C   6,H  13)          110.96  0.000003   -0.01    110.96   
    45. A(N   1,C   6,S   3)           89.79  0.000004    0.00     89.79   
    46. D(C   6,N   1,C   0,H   8)    175.93  0.000008   -0.01    175.92   
    47. D(C   6,N   1,C   0,H   9)     55.88  0.000006   -0.00     55.87   
    48. D(C   2,N   1,C   0,H   8)     64.18 -0.000003    0.00     64.18   
    49. D(C   6,N   1,C   0,H   7)    -64.18  0.000003   -0.00    -64.18   
    50. D(H  10,N   1,C   0,H   9)    180.00  0.000000   -0.00    180.00   
    51. D(C   2,N   1,C   0,H   7)   -175.93 -0.000008    0.01   -175.92   
    52. D(C   2,N   1,C   0,H   9)    -55.88 -0.000006    0.00    -55.87   
    53. D(H  10,N   1,C   0,H   8)    -59.95  0.000003   -0.00    -59.95   
    54. D(H  10,N   1,C   0,H   7)     59.95 -0.000003    0.00     59.95   
    55. D(H  11,C   2,N   1,C   6)   -136.08 -0.000012    0.00   -136.08   
    56. D(S   3,C   2,N   1,H  10)   -133.15 -0.000009    0.00   -133.14   
    57. D(S   3,C   2,N   1,C   0)    103.71  0.000008   -0.01    103.70   
    58. D(H  12,C   2,N   1,H  10)    -19.84 -0.000010    0.01    -19.83   
    59. D(H  11,C   2,N   1,H  10)    107.97 -0.000016    0.01    107.98   
    60. D(H  12,C   2,N   1,C   6)     96.11 -0.000006   -0.00     96.11   
    61. D(H  12,C   2,N   1,C   0)   -142.98  0.000007   -0.01   -142.99   
    62. D(S   3,C   2,N   1,C   6)    -17.20 -0.000005   -0.01    -17.20   
    63. D(H  11,C   2,N   1,C   0)    -15.18  0.000001   -0.01    -15.19   
    64. D(C   6,S   3,C   2,H  11)    130.26 -0.000004    0.02    130.27   
    65. D(C   6,S   3,C   2,N   1)     14.37  0.000003    0.01     14.38   
    66. D(O   5,S   3,C   2,H  12)     12.06 -0.000014    0.02     12.08   
    67. D(O   5,S   3,C   2,H  11)   -119.49 -0.000017    0.02   -119.46   
    68. D(O   4,S   3,C   2,H  11)     23.80 -0.000006    0.02     23.82   
    69. D(O   4,S   3,C   2,N   1)    -92.08  0.000001    0.01    -92.07   
    70. D(O   5,S   3,C   2,N   1)    124.63 -0.000009    0.01    124.64   
    71. D(C   6,S   3,C   2,H  12)    -98.20 -0.000002    0.01    -98.18   
    72. D(O   4,S   3,C   2,H  12)    155.35 -0.000004    0.01    155.36   
    73. D(H  13,C   6,N   1,C   0)    142.98 -0.000007    0.01    142.99   
    74. D(S   3,C   6,N   1,H  10)    133.15  0.000009   -0.00    133.14   
    75. D(S   3,C   6,N   1,C   2)     17.20  0.000005    0.01     17.20   
    76. D(S   3,C   6,N   1,C   0)   -103.71 -0.000008    0.01   -103.70   
    77. D(H  14,C   6,S   3,O   5)    119.49  0.000017   -0.02    119.46   
    78. D(H  14,C   6,S   3,O   4)    -23.80  0.000006   -0.02    -23.82   
    79. D(H  13,C   6,S   3,O   5)    -12.06  0.000014   -0.02    -12.08   
    80. D(H  13,C   6,S   3,O   4)   -155.35  0.000004   -0.01   -155.36   
    81. D(H  13,C   6,S   3,C   2)     98.20  0.000002   -0.01     98.18   
    82. D(N   1,C   6,S   3,O   5)   -124.63  0.000009   -0.01   -124.64   
    83. D(N   1,C   6,S   3,O   4)     92.08 -0.000001   -0.01     92.07   
    84. D(N   1,C   6,S   3,C   2)    -14.37 -0.000003   -0.01    -14.38   
    85. D(H  14,C   6,N   1,H  10)   -107.97  0.000016   -0.01   -107.98   
    86. D(H  14,C   6,N   1,C   2)    136.08  0.000012   -0.00    136.08   
    87. D(H  14,C   6,S   3,C   2)   -130.26  0.000004   -0.02   -130.27   
    88. D(H  14,C   6,N   1,C   0)     15.18 -0.000001    0.01     15.19   
    89. D(H  13,C   6,N   1,H  10)     19.84  0.000010   -0.01     19.83   
    90. D(H  13,C   6,N   1,C   2)    -96.11  0.000006    0.00    -96.11   
    ----------------------------------------------------------------------------
                 *******************************************************
                 *** FINAL ENERGY EVALUATION AT THE STATIONARY POINT ***
                 ***               (AFTER    2 CYCLES)               ***
                 *******************************************************


           ************************************************************
           *        Program running with 8 parallel MPI-processes     *
           *              working on a common directory               *
           ************************************************************
           ************************************************************
           *              Shut down parallel processing               *
           ************************************************************


           ************************************************************
           *        Program running with 8 parallel MPI-processes     *
           *              working on a common directory               *
           ************************************************************
------------
SCF SETTINGS
------------
Hamiltonian:
 Density Functional     Method          .... DFT(GTOs)
 Exchange Functional    Exchange        .... PBE
   PBE kappa parameter  XKappa          ....  0.804000
 Correlation Functional Correlation     .... PBE
 LDA part of GGA corr.  LDAOpt          .... PW91-LDA
 Gradients option       PostSCFGGA      .... off
 Hybrid DFT is turned on
   Fraction HF Exchange ScalHFX         ....  0.250000
   Scaling of DF-GGA-X  ScalDFX         ....  0.750000
   Scaling of DF-GGA-C  ScalDFC         ....  1.000000
   Scaling of DF-LDA-C  ScalLDAC        ....  1.000000
   Perturbative correction              ....  0.000000
   NL short-range parameter             ....  6.900000


General Settings:
 Integral files         IntName         .... 7054_+
 Hartree-Fock type      HFTyp           .... RHF
 Total Charge           Charge          ....    1
 Multiplicity           Mult            ....    1
 Number of Electrons    NEL             ....   64
 Basis Dimension        Dim             ....  271
 Nuclear Repulsion      ENuc            ....    445.5225236703 Eh

 Symmetry handling      UseSym         .... ON
 Point group                           .... Cs
 Used point group                      .... Cs
 Number of irreps                      .... 2
   Irrep   A' has  168 symmetry adapted basis functions (ofs=   0)
   Irrep   A" has  103 symmetry adapted basis functions (ofs= 168)

Convergence Acceleration:
 DIIS                   CNVDIIS         .... on
   Start iteration      DIISMaxIt       ....    12
   Startup error        DIISStart       ....  0.200000
   # of expansion vecs  DIISMaxEq       ....     5
   Bias factor          DIISBfac        ....   1.050
   Max. coefficient     DIISMaxC        ....  10.000
 Newton-Raphson         CNVNR           .... off
 SOSCF                  CNVSOSCF        .... on
   Start iteration      SOSCFMaxIt      ....   150
   Startup grad/error   SOSCFStart      ....  0.003300
 Level Shifting         CNVShift        .... on
   Level shift para.    LevelShift      ....    0.2500
   Turn off err/grad.   ShiftErr        ....    0.0010
 Zerner damping         CNVZerner       .... off
 Static damping         CNVDamp         .... on
   Fraction old density DampFac         ....    0.7000
   Max. Damping (<1)    DampMax         ....    0.9800
   Min. Damping (>=0)   DampMin         ....    0.0000
   Turn off err/grad.   DampErr         ....    0.1000
 Fernandez-Rico         CNVRico         .... off

SCF Procedure:
 Maximum # iterations   MaxIter         ....   125
 SCF integral mode      SCFMode         .... Direct
   Integral package                     .... LIBINT
 Reset frequeny         DirectResetFreq ....    20
 Integral Threshold     Thresh          ....  2.500e-11 Eh
 Primitive CutOff       TCut            ....  2.500e-12 Eh

Convergence Tolerance:
 Convergence Check Mode ConvCheckMode   .... Total+1el-Energy
 Energy Change          TolE            ....  1.000e-08 Eh
 1-El. energy change                    ....  1.000e-05 Eh
 Orbital Gradient       TolG            ....  1.000e-05
 Orbital Rotation angle TolX            ....  1.000e-05
 DIIS Error             TolErr          ....  5.000e-07


Diagonalization of the overlap matrix:
Smallest eigenvalue                        ... 6.074e-04
Time for diagonalization                   ...    0.215 sec
Threshold for overlap eigenvalues          ... 1.000e-08
Number of eigenvalues below threshold      ... 0
Time for construction of square roots      ...    0.020 sec
Producing symmetrization matrix            ... done (   0.015 sec)
Total time needed                          ...    0.251 sec

Warning: Geometry matches/Basis set matches and symmetry is to be used
         We proceed in good trust that the input orbitals and irreps are correct
Irrep occupations for operator 0
    A' -   23
    A" -    9
-------------------
DFT GRID GENERATION
-------------------

General Integration Accuracy     IntAcc      ...  4.340
Radial Grid Type                 RadialGrid  ... Gauss-Chebyshev
Angular Grid (max. acc.)         AngularGrid ... Lebedev-194
Angular grid pruning method      GridPruning ... 3 (G Style)
Weight generation scheme         WeightScheme... Becke
Basis function cutoff            BFCut       ...    1.0000e-11
Integration weight cutoff        WCut        ...    1.0000e-14
Grids for H and He will be reduced by one unit

# of grid points (after initial pruning)     ...  35708 (   0.0 sec)
# of grid points (after weights+screening)   ...  32966 (   0.1 sec)
nearest neighbour list constructed           ...    0.0 sec
Grid point re-assignment to atoms done       ...    0.0 sec
Grid point division into batches done        ...    0.1 sec
Reduced shell lists constructed in    0.3 sec

Total number of grid points                  ...    32966
Total number of batches                      ...      523
Average number of points per batch           ...       63
Average number of grid points per atom       ...     2198
Average number of shells per batch           ...    88.72 (79.92%)
Average number of basis functions per batch  ...   221.19 (81.62%)
Average number of large shells per batch     ...    74.94 (84.47%)
Average number of large basis fcns per batch ...   187.54 (84.78%)
Maximum spatial batch extension              ...   2.60,  1.90,  2.24 au
Average spatial batch extension              ...   0.15,  0.15,  0.15 au

Time for grid setup =    0.564 sec

--------------
SCF ITERATIONS
--------------
ITER       Energy         Delta-E        Max-DP      RMS-DP      [F,P]     Damp
               ***  Starting incremental Fock matrix formation  ***
                      *** Initiating the SOSCF procedure ***
                      *** Re-Reading the Fockian *** 
                      *** Removing any level shift *** 
ITER      Energy       Delta-E        Grad      Rot      Max-DP    RMS-DP
  0   -721.84707431 -721.8470743107  0.000048  0.000048  0.000069  0.000002
               *** Restarting incremental Fock matrix formation ***
  1   -721.84707442  -0.0000001055  0.000006  0.000020  0.000032  0.000001
  2   -721.84707441   0.0000000052  0.000017  0.000034  0.000022  0.000001
  3   -721.84707442  -0.0000000062  0.000011  0.000052  0.000042  0.000001
  4   -721.84707441   0.0000000108  0.000019  0.000048  0.000036  0.000001
  5   -721.84707442  -0.0000000130  0.000005  0.000033  0.000028  0.000001
  6   -721.84707441   0.0000000055  0.000021  0.000027  0.000024  0.000001
  7   -721.84707442  -0.0000000055  0.000003  0.000026  0.000024  0.000001
  8   -721.84707442   0.0000000020  0.000007  0.000025  0.000016  0.000000
                  ***Gradient check signals convergence***
              ***Rediagonalizing the Fockian in SOSCF/NRSCF***

               *****************************************************
               *                     SUCCESS                       *
               *           SCF CONVERGED AFTER   9 CYCLES          *
               *****************************************************

Setting up the final grid:

General Integration Accuracy     IntAcc      ...  5.010
Radial Grid Type                 RadialGrid  ... Gauss-Chebyshev
Angular Grid (max. acc.)         AngularGrid ... Lebedev-434
Angular grid pruning method      GridPruning ... 3 (G Style)
Weight generation scheme         WeightScheme... Becke
Basis function cutoff            BFCut       ...    1.0000e-11
Integration weight cutoff        WCut        ...    1.0000e-14
Grids for H and He will be reduced by one unit

# of grid points (after initial pruning)     ... 129644 (   0.0 sec)
# of grid points (after weights+screening)   ... 118384 (   0.1 sec)
nearest neighbour list constructed           ...    0.0 sec
Grid point re-assignment to atoms done       ...    0.0 sec
Grid point division into batches done        ...    0.9 sec
Reduced shell lists constructed in    1.2 sec

Total number of grid points                  ...   118384
Total number of batches                      ...     1858
Average number of points per batch           ...       63
Average number of grid points per atom       ...     7892
Average number of shells per batch           ...    87.71 (79.02%)
Average number of basis functions per batch  ...   219.33 (80.93%)
Average number of large shells per batch     ...    73.29 (83.55%)
Average number of large basis fcns per batch ...   183.27 (83.56%)
Maximum spatial batch extension              ...   2.09,  2.30,  2.14 au
Average spatial batch extension              ...   0.10,  0.10,  0.10 au

Final grid set up in    1.4 sec
Final integration                            ... done (   0.8 sec)
Change in XC energy                          ...     0.000326881
Integrated number of electrons               ...    64.000054612
Previous integrated no of electrons          ...    64.000904494
Total Energy       :         -721.84674754 Eh          -19642.44860 eV
  Last Energy change         ...   -2.2286e-09  Tolerance :   1.0000e-08
  Last MAX-Density change    ...    1.2477e-05  Tolerance :   1.0000e-07
             **** THE GBW FILE WAS UPDATED (7054_+.gbw) ****
             **** DENSITY FILE WAS UPDATED (7054_+.scfp.tmp) ****
             **** ENERGY FILE WAS UPDATED (7054_+.en.tmp) ****
Total SCF time: 0 days 0 hours 0 min 49 sec 
           ************************************************************
           *              Shut down parallel processing               *
           ************************************************************

-------------------------   --------------------
FINAL SINGLE POINT ENERGY      -721.846747539145
-------------------------   --------------------

                                *** OPTIMIZATION RUN DONE ***

                            ***************************************
                            *     ORCA property calculations      *
                            ***************************************

                                    ---------------------
                                    Active property flags
                                    ---------------------




           ************************************************************
           *        Program running with 8 parallel MPI-processes     *
           *              working on a common directory               *
           ************************************************************

-------------------------------------------------------------------------------
                               ORCA SCF HESSIAN
-------------------------------------------------------------------------------

Hessian of the Kohn-Sham DFT energy:
Kohn-Sham wavefunction type                      ... RKS
Hartree-Fock exchange scaling                    ...    0.250
Number of operators                              ...    1
Number of atoms                                  ...   15
Basis set dimensions                             ...  271
Integral neglect threshold                       ... 2.5e-11
Integral primitive cutoff                        ... 2.5e-12

Setting up DFT Hessian calculations              ... 
Electron density on the grid                     ... found on disk
Electron density on the final grid               ... found on disk
Building xc-kernel on the grid                   ... done   (      0.0 sec)
Building xc-kernel on the final grid             ... done   (      0.0 sec)
                                                     done   (      0.2 sec)

Nuclear repulsion Hessian                        ... done   (      0.0 sec)

----------------------------------------------
Forming right-hand sides of CP-SCF equations     ...
----------------------------------------------
One electron integral derivatives                ... done   (      0.3 sec)
Transforming the overlap derivative matrices     ... done   (      0.2 sec)
Making the Q(x) pseudodensities                  ... done   (      0.1 sec)
Adding the E*S(x)*S(y) terms to the Hessian      ... done   (      0.0 sec)
Calculating energy weighted overlap derivatives  ... done   (      0.0 sec)
Two electron integral derivatives                ... done   (     41.8 sec)
Exchange-correlation integral derivatives        ... done   (     44.9 sec)
tr(F(y)Q(x)) contribution to the Hessian         ... done   (      0.0 sec)
Response fock operator R(S(x))                   ... done   (    140.7 sec)
XC Response fock operator R(S(x))                ... done   (     18.8 sec)
tr(F(y)S(x)) contribution to the Hessian         ... done   (      0.0 sec)
Transforming and finalizing RHSs                 ... done   (      0.1 sec)

----------------------------------------------
Solving the CP-SCF equations                     ...
----------------------------------------------
     CP-SCF ITERATION   0: 
     CP-SCF ITERATION   1:      0.000799127
     CP-SCF ITERATION   2:      0.000097897
     CP-SCF ITERATION   3:      0.000007016
     CP-SCF ITERATION   4:      0.000001263
     CP-SCF ITERATION   5:      0.000000140
     CP-SCF ITERATION   6:      0.000000018
     CP-SCF ITERATION   7:      0.000000007

                                                 ... done   (   1208.5 sec)
Forming perturbed density Hessian contributions  ... done   (      0.0 sec)
Making the perturbed densities                   ... done   (      0.1 sec)
2nd integral derivative contribs                 ... done   (    254.7 sec)
Exchange-correlation Hessian                     ... done   (     24.3 sec)
Dipol derivatives                                ... done   (      2.0 sec)

Total SCF Hessian time: 0 days 0 hours 28 min 57 sec 

Writing the Hessian file to the disk             ... done

           ************************************************************
           *              Shut down parallel processing               *
           ************************************************************

-----------------------
VIBRATIONAL FREQUENCIES
-----------------------

   0:         0.00 cm**-1
   1:         0.00 cm**-1
   2:         0.00 cm**-1
   3:         0.00 cm**-1
   4:         0.00 cm**-1
   5:         0.00 cm**-1
   6:        84.96 cm**-1
   7:       215.71 cm**-1
   8:       267.07 cm**-1
   9:       283.54 cm**-1
  10:       371.20 cm**-1
  11:       375.05 cm**-1
  12:       441.29 cm**-1
  13:       448.67 cm**-1
  14:       639.30 cm**-1
  15:       737.46 cm**-1
  16:       773.59 cm**-1
[...]
     23      -0.056506   0.025493   0.091136  -0.061749  -0.070648  -0.034298
     24      -0.174558  -0.025887   0.285649   0.041232   0.067619  -0.105920
     25      -0.163021  -0.051495   0.261020  -0.232315  -0.101603  -0.045122
     26      -0.056507  -0.025493   0.091137   0.061749   0.070647  -0.034299
     27      -0.000001  -0.037386   0.000001   0.179993   0.114953  -0.000000
     28      -0.000000  -0.000072   0.000000   0.254259   0.149694  -0.000000
     29      -0.130634  -0.000001   0.243286   0.000000   0.000000  -0.128349
     30      -0.000000  -0.143314   0.000000  -0.012411  -0.050006  -0.000000
     31      -0.000000  -0.084844   0.000000  -0.158684  -0.115953   0.000000
     32       0.355322  -0.000003   0.424798   0.000001  -0.000000   0.847736
     33      -0.353886  -0.522349  -0.378345  -0.418395   0.360725   0.108580
     34       0.124252   0.129762   0.031746  -0.041230  -0.196262  -0.131459
     35      -0.007753  -0.078290  -0.164263  -0.229878  -0.065250  -0.069012
     36      -0.463190  -0.292905   0.101010   0.301701   0.500463   0.259844
     37       0.044654  -0.007274  -0.033802  -0.039737  -0.022226   0.034182
     38       0.002750   0.165908   0.165044   0.175438  -0.014846  -0.034759
     39       0.463190  -0.292907  -0.101012   0.301700   0.500463  -0.259844
     40      -0.044654  -0.007274   0.033802  -0.039737  -0.022226  -0.034182
     41       0.002750  -0.165910   0.165044  -0.175438   0.014846  -0.034759
     42       0.353884  -0.522356   0.378344  -0.418395   0.360725  -0.108580
     43      -0.124252   0.129763  -0.031745  -0.041230  -0.196262   0.131459
     44      -0.007753   0.078292  -0.164263   0.229878   0.065250  -0.069012
                 30         31         32         33         34         35    
      0       0.069013   0.000000  -0.057056  -0.020336  -0.045857   0.000001
      1      -0.036465   0.000000  -0.062427  -0.059559  -0.028443   0.000001
      2       0.000000   0.001216   0.000000   0.000000  -0.000002  -0.045647
      3      -0.085780   0.000000  -0.013828  -0.011423  -0.030522  -0.000000
      4      -0.064639   0.000000  -0.026162  -0.002013   0.008517  -0.000000
      5      -0.000000  -0.037496  -0.000001  -0.000000  -0.000001  -0.026843
      6      -0.015188  -0.017646  -0.001823   0.017770   0.018610   0.000601
      7       0.029029  -0.006295  -0.003335   0.005369   0.010223   0.000150
      8      -0.002499  -0.048236  -0.029387   0.046938   0.019219   0.010254
      9       0.002767  -0.000000   0.007198   0.009829  -0.075183   0.000002
     10      -0.009292  -0.000000   0.013641   0.016577  -0.164846   0.000004
     11       0.000000  -0.003080  -0.000000  -0.000000   0.000000   0.000239
     12      -0.002033  -0.000000   0.001263   0.002471  -0.016468   0.000000
     13       0.014990   0.000000  -0.015562  -0.014931   0.180342  -0.000004
     14      -0.000000   0.001133   0.000000  -0.000000  -0.000000  -0.000558
     15       0.001555   0.000000  -0.014557  -0.019816   0.158695  -0.000003
     16       0.002330   0.000000  -0.011418  -0.017018   0.135814  -0.000003
     17       0.000000   0.000458   0.000000   0.000000  -0.000000   0.000031
     18      -0.015188   0.017646  -0.001823   0.017770   0.018610  -0.000601
     19       0.029029   0.006295  -0.003334   0.005369   0.010223  -0.000150
     20       0.002499  -0.048236   0.029386  -0.046938  -0.019218   0.010254
     21      -0.137895   0.004245   0.210123  -0.071662   0.465157  -0.104630
     22       0.150131   0.061565   0.380413   0.299064   0.127572   0.482876
     23       0.148701  -0.000607  -0.170404   0.040775  -0.341273   0.054322
     24      -0.137894  -0.004248   0.210121  -0.071662   0.465165   0.104629
     25       0.150132  -0.061570   0.380408   0.299062   0.127524  -0.482885
     26      -0.148701  -0.000609   0.170404  -0.040775   0.341277   0.054320
     27      -0.036099  -0.000003   0.388041   0.374103  -0.095399  -0.000006
     28      -0.116637  -0.000002   0.268664   0.235849  -0.078500  -0.000004
     29      -0.000000   0.054952   0.000003   0.000001   0.000034   0.700739
     30       0.718638   0.000000  -0.024799  -0.012738   0.122691   0.000001
     31       0.510176   0.000000  -0.035986  -0.007953   0.118150   0.000001
     32      -0.000000   0.115011   0.000001   0.000000   0.000001   0.021473
     33      -0.011961   0.127920   0.034457  -0.119133  -0.007645   0.004295
     34       0.006802   0.343363   0.204663  -0.269184  -0.124176  -0.043139
     35      -0.024318   0.317909   0.175013  -0.243716  -0.106050  -0.028007
     36       0.134168   0.037346   0.022562  -0.019758  -0.140741   0.002521
     37      -0.022919  -0.185502  -0.110805   0.150965   0.077755   0.020613
     38       0.105612   0.462107   0.279242  -0.362484  -0.137002  -0.050765
     39       0.134169  -0.037346   0.022562  -0.019758  -0.140742  -0.002515
     40      -0.022919   0.185503  -0.110802   0.150964   0.077753  -0.020614
     41      -0.105612   0.462111  -0.279235   0.362483   0.136997  -0.050765
     42      -0.011961  -0.127920   0.034455  -0.119133  -0.007646  -0.004297
     43       0.006802  -0.343366   0.204658  -0.269184  -0.124172   0.043140
     44       0.024318   0.317912  -0.175008   0.243716   0.106047  -0.028008
                 36         37         38         39         40         41    
      0       0.022945   0.025375  -0.000000   0.001154  -0.001157  -0.078743
      1      -0.007588   0.037966   0.000000   0.000508   0.000811   0.055213
      2      -0.000001  -0.000001   0.001311  -0.000000   0.095662  -0.001406
      3       0.045530   0.000154   0.000000   0.000641   0.000022   0.001519
      4      -0.003014  -0.000677  -0.000000   0.001090  -0.000026  -0.001764
      5      -0.000001   0.000000   0.001822   0.000000   0.000001  -0.000000
      6      -0.003625  -0.000590   0.002435   0.002644   0.000795  -0.000016
      7      -0.000642  -0.000277  -0.017939  -0.017724   0.005467  -0.001921
      8      -0.017343   0.000575  -0.042988  -0.043981  -0.001591   0.000368
      9      -0.029780   0.000105   0.000000  -0.000160   0.000001   0.000090
     10      -0.062423  -0.000090  -0.000000  -0.000163  -0.000001  -0.000077
     11       0.000000  -0.000000   0.000149  -0.000000   0.000014  -0.000000
     12      -0.006036  -0.000128  -0.000000  -0.000213  -0.000002  -0.000164
     13       0.067082   0.000136   0.000000   0.000253   0.000002   0.000152
     14      -0.000000   0.000000   0.000066   0.000000  -0.000018   0.000000
     15       0.059596  -0.000039  -0.000000  -0.000068  -0.000000  -0.000006
     16       0.051859   0.000000   0.000000   0.000239   0.000001   0.000044
     17       0.000000  -0.000000  -0.000024  -0.000000  -0.000005   0.000000
     18      -0.003625  -0.000590  -0.002435   0.002644  -0.000795   0.000008
     19      -0.000642  -0.000277   0.017939  -0.017724  -0.005521  -0.001759
     20       0.017343  -0.000575  -0.042988   0.043981  -0.001601  -0.000321
     21      -0.469630  -0.323167  -0.003276  -0.006098  -0.399535   0.232026
     22       0.051496   0.012500   0.001056  -0.000867   0.019368  -0.004005
     23       0.332742  -0.470873  -0.005630  -0.008182  -0.568251   0.355745
     24      -0.469623  -0.323175   0.003276  -0.006098   0.406172   0.220186
     25       0.051477   0.012501  -0.001055  -0.000867  -0.019477  -0.003434
     26      -0.332739   0.470883  -0.005630   0.008183  -0.578445  -0.338893
     27       0.342866   0.351062   0.000000   0.001342   0.007044   0.479266
     28       0.247265  -0.470888  -0.000000  -0.004019  -0.009476  -0.644747
     29       0.000014  -0.000000   0.000297  -0.000000   0.015756  -0.000232
     30      -0.188502  -0.003355  -0.000000   0.006659  -0.000339  -0.023059
     31      -0.174080   0.004152   0.000000  -0.008959   0.000218   0.014853
     32       0.000000   0.000000  -0.003656   0.000000   0.000802  -0.000012
     33       0.065163   0.003959  -0.095321  -0.095539  -0.009885   0.002928
     34       0.080806   0.007451  -0.300468  -0.301749  -0.028064   0.009124
     35       0.079317  -0.006201   0.321623   0.324103   0.029920  -0.009273
     36      -0.034030  -0.000213   0.058938   0.059573  -0.005052   0.001637
     37      -0.046312  -0.004432   0.510834   0.508399  -0.040845   0.015463
     38       0.118400  -0.000499   0.174752   0.174142  -0.015870   0.006118
     39      -0.034030  -0.000214  -0.058938   0.059573   0.005098   0.001488
     40      -0.046313  -0.004431  -0.510834   0.508399   0.041281   0.014253
     41      -0.118402   0.000499   0.174752  -0.174142  -0.016042  -0.005648
     42       0.065163   0.003958   0.095321  -0.095539   0.009967   0.002636
     43       0.080808   0.007450   0.300468  -0.301749   0.028319   0.008293
     44      -0.079319   0.006201   0.321623  -0.324103   0.030179   0.008387
                  42         43         44    
      0       0.002197   0.000000  -0.001451
      1      -0.001794  -0.000000   0.001554
      2      -0.000000   0.008521  -0.000000
      3      -0.001037  -0.000000  -0.042717
      4       0.002433   0.000000   0.059431
      5       0.000000  -0.000239  -0.000000
      6      -0.013887  -0.013650  -0.000043
      7      -0.065711  -0.065011   0.001110
      8       0.021274   0.020830   0.000100
      9       0.000085   0.000000   0.000234
     10      -0.000532  -0.000000   0.000005
     11       0.000000  -0.000080   0.000000
     12      -0.000195  -0.000000   0.000046
     13       0.000685   0.000000  -0.000136
     14      -0.000000   0.000087  -0.000000
     15       0.000325   0.000000   0.000174
     16       0.000305   0.000000   0.000048
     17      -0.000000   0.000036   0.000000
     18      -0.013887   0.013649  -0.000043
     19      -0.065714   0.065008   0.001110
     20      -0.021275   0.020829  -0.000100
     21      -0.002952  -0.034802   0.004844
     22       0.001487   0.001956  -0.000592
     23      -0.006418  -0.049736   0.005933
     24      -0.002953   0.034800   0.004844
     25       0.001487  -0.001956  -0.000592
     26       0.006420  -0.049732  -0.005933
     27      -0.014916  -0.000002   0.010791
     28       0.022462   0.000002  -0.022551
     29      -0.000000   0.001892  -0.000000
     30       0.008264   0.000000   0.578429
     31      -0.017612  -0.000000  -0.811665
     32       0.000000  -0.005247  -0.000000
     33       0.118764   0.118983   0.000555
     34       0.352760   0.353050  -0.002946
     35      -0.392867  -0.394525   0.005056
     36       0.044724   0.043756   0.000474
     37       0.420694   0.415802  -0.014133
     38       0.150096   0.148927  -0.004706
     39       0.044726  -0.043754   0.000474
     40       0.420713  -0.415783  -0.014133
     41      -0.150103   0.148920   0.004706
     42       0.118770  -0.118977   0.000555
     43       0.352776  -0.353034  -0.002946
     44       0.392885  -0.394507  -0.005056


-----------
IR SPECTRUM
-----------

 Mode    freq (cm**-1)   T**2         TX         TY         TZ
-------------------------------------------------------------------
   6:        84.96    3.392284  ( -1.312988  -1.291645   0.000007)
   7:       215.71    0.612106  ( -0.000014  -0.000004  -0.782372)
   8:       267.07    0.594163  ( -0.000002   0.000005   0.770820)
   9:       283.54    0.013844  ( -0.117062  -0.011850  -0.000002)
  10:       371.20   12.853822  (  3.474389  -0.884558  -0.000005)
  11:       375.05    2.345589  ( -0.000019  -0.000001  -1.531532)
  12:       441.29   10.952538  ( -0.000036   0.000014  -3.309462)
  13:       448.67   13.519121  (  3.419603  -1.351086  -0.000040)
  14:       639.30   30.158348  ( -5.277878   1.517350   0.000000)
  15:       737.46   43.739562  (  0.000002   0.000011  -6.613589)
  16:       773.59    1.015629  ( -0.992695  -0.173741  -0.000010)
  17:       817.94   14.120237  ( -0.000002  -0.000004   3.757690)
  18:       834.56    3.878311  ( -0.189664  -1.960188  -0.000001)
  19:       919.91   11.041146  ( -0.000002  -0.000003   3.322822)
  20:       941.35    7.491846  ( -2.237337  -1.576760  -0.000004)
  21:      1013.03   19.401950  (  3.985164   1.876277  -0.000000)
  22:      1083.96    3.855890  (  0.000001   0.000001   1.963642)
  23:      1109.84    2.072291  ( -1.429572   0.169158  -0.000007)
  24:      1205.28    6.190575  (  0.000014  -0.000006   2.488087)
  25:      1212.09   67.894527  (  7.861269  -2.468801  -0.000009)
  26:      1219.91    0.580367  (  0.000035  -0.000009   0.761818)
  27:      1275.19   18.020608  ( -3.491421   2.414661   0.000001)
  28:      1297.94   84.133533  (  8.172659  -4.164274   0.000001)
  29:      1331.33   10.324597  ( -0.000001  -0.000001   3.213191)
  30:      1417.37   13.143948  (  2.761529   2.349022  -0.000003)
  31:      1446.96   41.022735  ( -0.000006  -0.000030   6.404899)
  32:      1447.31   16.270183  (  0.727789   3.967431   0.000063)
  33:      1470.93    9.282716  (  0.875997   2.918106   0.000007)
  34:      1488.10  130.962503  ( -3.371150 -10.936080   0.000098)
  35:      1491.81   12.020051  (  0.000214   0.000363   3.466995)
  36:      1498.85   65.194646  ( -6.903943  -4.186910   0.000060)
  37:      3084.06    0.596007  (  0.062894  -0.769449   0.000009)
  38:      3118.19   13.498300  (  0.000000  -0.000000   3.674003)
  39:      3121.23    1.719600  ( -0.542367   1.193917   0.000000)
  40:      3190.43    0.951068  (  0.016267  -0.014563  -0.974983)
  41:      3190.48    2.206428  (  1.107006  -0.990333   0.014320)
  42:      3209.70   18.081975  (  0.929195   4.149527   0.000030)
  43:      3209.75    1.838731  (  0.000018   0.000098  -1.355998)
  44:      3479.27   95.528936  (  6.419328  -7.370289   0.000000)

The first frequency considered to be a vibration is 6
The total number of vibrations considered is 39


--------------------------
THERMOCHEMISTRY AT 298.15K
--------------------------

Temperature         ... 298.15 K
Pressure            ... 1.00 atm
Total Mass          ... 122.16 AMU

Throughout the following assumptions are being made:
  (1) The electronic state is orbitally nondegenerate
  (2) There are no thermally accessible electronically excited states
  (3) Hindered rotations indicated by low frequency modes) are not
      treated as such but are treated as vibrations and this may
      case some error
  (4) All equations used are the standard statistical mechanics
      equations for an ideal gas
  (5) All vibrations are strinctly harmonic


------------
INNER ENERGY
------------

The inner energy is: U= E(el) + E(ZPE) + E(vib) + E(rot) + E(trans)
    E(el)   - is the total energy from the electronic structure calculation
              = E(kin-el) + E(nuc-el) + E(el-el) + E(nuc-nuc)
    E(ZPE)  - the the zero temperature vibrational energy from the frequency calculation
    E(vib)  - the the finite temperature correction to E(ZPE) due to population
              of excietd vibrational states
    E(rot)  - is the rotational thermal energy
    E(trans)- is the translational thermal energy

Summary of contributions to the inner energy U:
Electronic energy                ...   -721.84674754 Eh
Zero point energy                ...      0.12476297 Eh      78.29 kcal/mol
Thermal vibrational correction   ...      0.00418371 Eh       2.63 kcal/mol
Thermal rotational correction    ...      0.00141627 Eh       0.89 kcal/mol
Thermal translational correction ...      0.00141627 Eh       0.89 kcal/mol
-----------------------------------------------------------------------
Total thermal energy                   -721.71496831 Eh


Summary of corrections to the electronic energy:
(perhaps to be used in another calculation)
Total thermal correction                  0.00701625 Eh       4.40 kcal/mol
Non-thermal (ZPE) correction              0.12476297 Eh      78.29 kcal/mol
-----------------------------------------------------------------------
Total correction                          0.13177923 Eh      82.69 kcal/mol


--------
ENTHALPY
--------

The enthalpy is H = U + kB*T
                kB is Boltzmann's constant
Total free energy                 ...   -721.71496831 Eh 
Thermal Enthalpy correction       ...      0.00094421 Eh       0.59 kcal/mol
-----------------------------------------------------------------------
Total Enthalpy                    ...   -721.71402410 Eh


-------
ENTROPY
-------

The entropy contributions are T*S = T*(S(el)+S(vib)+S(rot)+S(trans)
     S(el)   - electronic entropy
     S(vib)  - vibrational entropy
     S(rot)  - rotational entropy
     S(trans)- translational entropy
The entropies will be listed as mutliplied by the temperature to get
units of energy

Electronic entropy                ...      0.00000000 Eh      0.00 kcal/mol
Vibrational entropy               ...      0.00696798 Eh      4.37 kcal/mol
Rotational entropy                ...      0.01205058 Eh      7.56 kcal/mol
Translational entropy             ...      0.01915475 Eh     12.02 kcal/mol
-----------------------------------------------------------------------
Final entropy term                ...      0.03817331 Eh     23.95 kcal/mol


CAUTION: The rotational entropy is not quite correctly treated here
         because it includes a symmetry number that is not yet correctly
         implemented in ORCA!
For a nonlinear molecule the correct rotational entropy is:
    S(rot) = R*(ln(qrot/sn)+1.5)
    R    = 8.31441 J/mol/K = 1.987191683e-3 kcal/mol/K
    qrot = 233658.4568941
    sn is the rotational symmetry number. We have assumed 3 here
       if it is different for your molecule then you should correct
       the printed rotational entropy by manually evaluating the equation
       as given above

For convenience we print out the resulting values for sn=1 - 12:
 sn= 1  qrot/sn=  233658.4569 T*S(rot)=     8.21 kcal/mol T*S(tot)=    24.60 kcal/mol
 sn= 2  qrot/sn=  116829.2284 T*S(rot)=     7.80 kcal/mol T*S(tot)=    24.19 kcal/mol
 sn= 3  qrot/sn=   77886.1523 T*S(rot)=     7.56 kcal/mol T*S(tot)=    23.95 kcal/mol
 sn= 4  qrot/sn=   58414.6142 T*S(rot)=     7.39 kcal/mol T*S(tot)=    23.78 kcal/mol
 sn= 5  qrot/sn=   46731.6914 T*S(rot)=     7.26 kcal/mol T*S(tot)=    23.65 kcal/mol
 sn= 6  qrot/sn=   38943.0761 T*S(rot)=     7.15 kcal/mol T*S(tot)=    23.54 kcal/mol
 sn= 7  qrot/sn=   33379.7796 T*S(rot)=     7.06 kcal/mol T*S(tot)=    23.45 kcal/mol
 sn= 8  qrot/sn=   29207.3071 T*S(rot)=     6.98 kcal/mol T*S(tot)=    23.37 kcal/mol
 sn= 9  qrot/sn=   25962.0508 T*S(rot)=     6.91 kcal/mol T*S(tot)=    23.30 kcal/mol
 sn=10  qrot/sn=   23365.8457 T*S(rot)=     6.85 kcal/mol T*S(tot)=    23.24 kcal/mol
 sn=11  qrot/sn=   21241.6779 T*S(rot)=     6.79 kcal/mol T*S(tot)=    23.18 kcal/mol
 sn=12  qrot/sn=   19471.5381 T*S(rot)=     6.74 kcal/mol T*S(tot)=    23.13 kcal/mol


-------------------
GIBBS FREE ENTHALPY
-------------------

The Gibbs free enthalpy is G = H - T*S

Total enthalpy                    ...   -721.71402410 Eh 
Total entropy correction          ...     -0.03817331 Eh    -23.95 kcal/mol
-----------------------------------------------------------------------
Final Gibbs free enthalpy         ...   -721.75219741 Eh

For completeness - the Gibbs free enthalpy minus the electronic energy
G-E(el)                           ...      0.09455013 Eh     59.33 kcal/mol


Timings for individual modules:

Sum of individual times         ...     2024.953 sec (=  33.749 min)
GTO integral calculation        ...        7.221 sec (=   0.120 min)   0.4 %
SCF iterations                  ...      209.251 sec (=   3.488 min)  10.3 %
SCF Gradient evaluation         ...       68.169 sec (=   1.136 min)   3.4 %
Geometry relaxation             ...        0.408 sec (=   0.007 min)   0.0 %
Analytical frequency calculation...     1739.904 sec (=  28.998 min)  85.9 %
                             ****ORCA TERMINATED NORMALLY****
TOTAL RUN TIME: 0 days 0 hours 33 minutes 47 seconds 380 msec
