
                                 *****************
                                 * O   R   C   A *
                                 *****************

           --- An Ab Initio, DFT and Semiempirical electronic structure package ---

                  #######################################################
                  #                        -***-                        #
                  #  Department of molecular theory and spectroscopy    #
                  #              Directorship: Frank Neese              #
                  # Max Planck Institute for Chemical Energy Conversion #
                  #                  D-45470 Muelheim/Ruhr              #
                  #                       Germany                       #
                  #                                                     #
                  #                  All rights reserved                #
                  #                        -***-                        #
                  #######################################################


                         Program Version 3.0.3 - RELEASE   -


 With contributions from (in alphabetic order):
   Ute Becker             : Parallelization
   Dmytro Bykov           : SCF Hessian
   Dmitry Ganyushin       : Spin-Orbit,Spin-Spin,Magnetic field MRCI
   Andreas Hansen         : Spin unrestricted coupled pair/coupled cluster methods
   Dimitrios Liakos       : Extrapolation schemes; parallel MDCI
   Robert Izsak           : Overlap fitted RIJCOSX, COSX-SCS-MP3
   Christian Kollmar      : KDIIS, OOCD, Brueckner-CCSD(T), CCSD density
   Simone Kossmann        : Meta GGA functionals, TD-DFT gradient, OOMP2, MP2 Hessian
   Taras Petrenko         : DFT Hessian,TD-DFT gradient, ASA and ECA modules, normal mode analysis, Resonance Raman, ABS, FL, XAS/XES, NRVS
   Christoph Reimann      : Effective Core Potentials
   Michael Roemelt        : Restricted open shell CIS
   Christoph Riplinger    : Improved optimizer, TS searches, QM/MM, DLPNO-CCSD
   Barbara Sandhoefer     : DKH picture change effects
   Igor Schapiro          : Molecular dynamics
   Kantharuban Sivalingam : CASSCF convergence, NEVPT2
   Boris Wezisla          : Elementary symmetry handling
   Frank Wennmohs         : Technical directorship


 We gratefully acknowledge several colleagues who have allowed us to
 interface, adapt or use parts of their codes:
   Stefan Grimme, W. Hujo, H. Kruse, T. Risthaus : VdW corrections, initial TS optimization,
                                                   DFT functionals, gCP
   Ed Valeev                                     : LibInt (2-el integral package), F12 methods
   Garnet Chan, S. Sharma, R. Olivares           : DMRG
   Ulf Ekstrom                                   : XCFun DFT Library
   Mihaly Kallay                                 : mrcc  (arbitrary order and MRCC methods)
   Andreas Klamt, Michael Diedenhofen            : otool_cosmo (COSMO solvation model)
   Frank Weinhold                                : gennbo (NPA and NBO analysis)
   Christopher J. Cramer and Donald G. Truhlar   : smd solvation model


 Your calculation uses the libint2 library for the computation of 2-el integrals
 For citations please refer to: http://libint.valeyev.net

 This ORCA versions uses:
   CBLAS   interface :  Fast vector & matrix operations
   LAPACKE interface :  Fast linear algebra routines
   SCALAPACK package :  Parallel linear algebra routines


Your calculation utilizes the basis: Ahlrichs-TZV
Cite in your paper:
H - Kr: A. Schaefer, H. Horn and R. Ahlrichs, J. Chem. Phys. 97, 2571 (1992).

The def2-TZV basis will be loaded
Cite in your paper:
 	F. Weigend, R. Ahlrichs, Phys. Chem. Chem. Phys. 2005, 7, 3297.

================================================================================
                                        WARNINGS
                       Please study these warnings very carefully!
================================================================================
Now building the actual basis set
WARNING: Geometry optimizations can change the point-group symmetry!

WARNING: Geometry Optimization
  ===> : Switching off AutoStart
         For restart on a previous wavefunction, please use MOREAD


INFO   : the flag for use of LIBINT has been found!

================================================================================
                                       INPUT FILE
================================================================================
NAME = 7114_+.inp
|  1> ! NORI PBE0 def2-TZVP UseSym TightOPT Freq TightSCF Grid3 FinalGrid5 XYZFile
|  2> % pal
|  3>     nprocs 8
|  4> end
|  5> %method
|  6>     SymThresh 5.0e-2
|  7> end
|  8> % geom 
|  9>     MaxIter 10
| 10> end 
| 11> % maxcore 2000
| 12> % output
| 13>     printlevel mini
| 14>     print[ P_Basis ] 0
| 15>     print[ P_SCFInfo ] 1
| 16>     print[ P_SCFIterInfo ] 1
| 17>     print[ P_OrbEn ] 0
| 18>     print[ P_Cartesian ] 0
| 19> end
| 20> % elprop
| 21>     Dipole false
| 22> end
| 23> *xyz 1 1
| 24>  N        1.8841842265    -0.7403068532     0.6907137384 
| 25>  C        1.6430402230     0.0293146846    -0.5716091163 
| 26>  C        2.6468057493    -0.4736135753    -1.5731188078 
| 27>  N        3.5286851740    -1.3384629376    -1.1209883305 
| 28>  S        4.5543191446    -1.7704740968    -2.3185108215 
| 29>  C        3.8216342658    -0.7890483872    -3.4799949390 
| 30>  C        2.7634424250    -0.1175793804    -2.9271700181 
| 31>  H        2.0223261108    -0.1424756576     1.5033289434 
| 32>  H        2.7636110974    -1.2859721574     0.4809380628 
| 33>  H        1.1336258604    -1.3971832742     0.8984492513 
| 34>  H        0.6150599477    -0.1266345702    -0.8993570702 
| 35>  H        1.7778365893     1.0918410053    -0.3644841977 
| 36>  H        4.1824025534    -0.7425183242    -4.4980424571 
| 37>  H        2.1258966330     0.5749735240    -3.4587842376 
| 38> *
| 39> 
| 40>                          ****END OF INPUT****
================================================================================

The point group is C1 - hence turning off symmetry
If this is a round-off problem, please increase the symmetry
        detection tolerance (%method SymThresh)


                       *****************************
                       * Geometry Optimization Run *
                       *****************************

Geometry optimization settings:
Update method            Update   .... BFGS
Choice of coordinates    CoordSys .... Redundant Internals
Initial Hessian          InHess   .... Almoef's Model

Convergence Tolerances:
Energy Change            TolE     ....  1.0000e-06 Eh
Max. Gradient            TolMAXG  ....  1.0000e-04 Eh/bohr
RMS Gradient             TolRMSG  ....  3.0000e-05 Eh/bohr
Max. Displacement        TolMAXD  ....  1.0000e-03 bohr
RMS Displacement         TolRMSD  ....  6.0000e-04 bohr

------------------------------------------------------------------------------
                        ORCA OPTIMIZATION COORDINATE SETUP
------------------------------------------------------------------------------

The optimization will be done in new redundant internal coordinates
Making redundant internal coordinates   ...  (new redundants) done
Evaluating the initial hessian          ...  (Almloef) done
Evaluating the coordinates              ...  done
Calculating the B-matrix                .... done
Calculating the G-matrix                .... done
Diagonalizing the G-matrix              .... done
The first mode is                       ....   29
The number of degrees of freedom        ....   36

    -----------------------------------------------------------------
                    Redundant Internal Coordinates


    -----------------------------------------------------------------
         Definition                    Initial Value    Approx d2E/dq
    -----------------------------------------------------------------
      1. B(C   1,N   0)                  1.4980         0.376365   
      2. B(C   2,C   1)                  1.5045         0.410270   
      3. B(N   3,C   2)                  1.3153         0.736214   
      4. B(S   4,N   3)                  1.6348         0.613843   
      5. B(C   5,S   4)                  1.6879         0.563893   
      6. B(C   6,C   5)                  1.3698         0.673011   
      7. B(C   6,C   2)                  1.4049         0.591458   
      8. B(H   7,N   0)                  1.0182         0.419794   
      9. B(H   8,N   0)                  1.0560         0.365423   
     10. B(H   9,N   0)                  1.0188         0.418924   
     11. B(H  10,C   1)                  1.0902         0.359868   
     12. B(H  11,C   1)                  1.0909         0.358929   
     13. B(H  12,C   5)                  1.0811         0.372092   
     14. B(H  13,C   6)                  1.0811         0.372112   
     15. A(C   1,N   0,H   9)          112.6117         0.328101   
     16. A(H   7,N   0,H   9)          108.4070         0.300239   
     17. A(H   7,N   0,H   8)          110.4219         0.293807   
     18. A(C   1,N   0,H   8)          103.4233         0.320820   
     19. A(C   1,N   0,H   7)          113.1227         0.328214   
     20. A(H   8,N   0,H   9)          108.7150         0.293711   
     21. A(H  10,C   1,H  11)          108.2358         0.290661   
     22. A(N   0,C   1,C   2)          106.3682         0.367394   
     23. A(C   2,C   1,H  11)          111.6875         0.329186   
     24. A(N   0,C   1,H  11)          108.6948         0.322604   
     25. A(C   2,C   1,H  10)          112.4060         0.329328   
     26. A(N   0,C   1,H  10)          109.3686         0.322742   
     27. A(N   3,C   2,C   6)          116.2479         0.441021   
     28. A(C   1,C   2,C   6)          127.7522         0.399944   
     29. A(C   1,C   2,N   3)          115.9951         0.413052   
     30. A(C   2,N   3,S   4)          110.0346         0.466258   
     31. A(N   3,S   4,C   5)           94.4781         0.472249   
     32. A(S   4,C   5,C   6)          110.0383         0.457221   
     33. A(C   6,C   5,H  12)          128.0801         0.359856   
     34. A(S   4,C   5,H  12)          121.8815         0.367494   
     35. A(C   5,C   6,H  13)          124.8314         0.359859   
     36. A(C   2,C   6,H  13)          125.9675         0.352055   
     37. A(C   2,C   6,C   5)          109.2011         0.436804   
     38. D(H  10,C   1,N   0,H   9)     11.5952         0.012979   
     39. D(H  11,C   1,N   0,H   8)   -113.2497         0.012979   
     40. D(H  10,C   1,N   0,H   8)    128.7724         0.012979   
     41. D(C   2,C   1,N   0,H   8)      7.1477         0.012979   
     42. D(C   2,C   1,N   0,H   7)    126.6182         0.012979   
     43. D(C   2,C   1,N   0,H   9)   -110.0295         0.012979   
     44. D(H  11,C   1,N   0,H   9)    129.5732         0.012979   
     45. D(H  10,C   1,N   0,H   7)   -111.7570         0.012979   
     46. D(H  11,C   1,N   0,H   7)      6.2209         0.012979   
     47. D(C   6,C   2,C   1,H  10)     56.0161         0.012466   
     48. D(N   3,C   2,C   1,H  11)    113.2984         0.012466   
     49. D(N   3,C   2,C   1,H  10)   -124.8153         0.012466   
     50. D(N   3,C   2,C   1,N   0)     -5.1472         0.012466   
     51. D(C   6,C   2,C   1,H  11)    -65.8701         0.012466   
     52. D(C   6,C   2,C   1,N   0)    175.6843         0.012466   
     53. D(S   4,N   3,C   2,C   6)      0.0118         0.041003   
     54. D(S   4,N   3,C   2,C   1)   -179.2552         0.041003   
     55. D(C   5,S   4,N   3,C   2)      0.0315         0.007283   
     56. D(H  12,C   5,S   4,N   3)   -179.9722         0.006273   
     57. D(C   6,C   5,S   4,N   3)     -0.0667         0.006273   
     58. D(H  13,C   6,C   5,H  12)     -0.0433         0.031699   
     59. D(C   2,C   6,C   5,H  12)    179.9780         0.031699   
     60. D(C   2,C   6,C   5,S   4)      0.0800         0.031699   
     61. D(H  13,C   6,C   2,N   3)    179.9603         0.024080   
     62. D(H  13,C   6,C   2,C   1)     -0.8730         0.024080   
     63. D(H  13,C   6,C   5,S   4)   -179.9414         0.031699   
     64. D(C   5,C   6,C   2,N   3)     -0.0614         0.024080   
     65. D(C   5,C   6,C   2,C   1)    179.1054         0.024080   
    -----------------------------------------------------------------

Number of atoms                         .... 14
Number of degrees of freedom            .... 65

         *************************************************************
         *                GEOMETRY OPTIMIZATION CYCLE   1            *
         *************************************************************


           ************************************************************
           *        Program running with 8 parallel MPI-processes     *
           *              working on a common directory               *
           ************************************************************
           ************************************************************
           *              Shut down parallel processing               *
           ************************************************************


           ************************************************************
           *        Program running with 8 parallel MPI-processes     *
           *              working on a common directory               *
           ************************************************************
------------
SCF SETTINGS
------------
Hamiltonian:
 Density Functional     Method          .... DFT(GTOs)
 Exchange Functional    Exchange        .... PBE
   PBE kappa parameter  XKappa          ....  0.804000
 Correlation Functional Correlation     .... PBE
 LDA part of GGA corr.  LDAOpt          .... PW91-LDA
 Gradients option       PostSCFGGA      .... off
 Hybrid DFT is turned on
   Fraction HF Exchange ScalHFX         ....  0.250000
   Scaling of DF-GGA-X  ScalDFX         ....  0.750000
   Scaling of DF-GGA-C  ScalDFC         ....  1.000000
   Scaling of DF-LDA-C  ScalLDAC        ....  1.000000
   Perturbative correction              ....  0.000000
   NL short-range parameter             ....  6.900000


General Settings:
 Integral files         IntName         .... 7114_+
 Hartree-Fock type      HFTyp           .... RHF
 Total Charge           Charge          ....    1
 Multiplicity           Mult            ....    1
 Number of Electrons    NEL             ....   60
 Basis Dimension        Dim             ....  265
 Nuclear Repulsion      ENuc            ....    367.8992438617 Eh

Convergence Acceleration:
 DIIS                   CNVDIIS         .... on
   Start iteration      DIISMaxIt       ....    12
   Startup error        DIISStart       ....  0.200000
   # of expansion vecs  DIISMaxEq       ....     5
   Bias factor          DIISBfac        ....   1.050
   Max. coefficient     DIISMaxC        ....  10.000
 Newton-Raphson         CNVNR           .... off
 SOSCF                  CNVSOSCF        .... on
   Start iteration      SOSCFMaxIt      ....   150
   Startup grad/error   SOSCFStart      ....  0.003300
 Level Shifting         CNVShift        .... on
   Level shift para.    LevelShift      ....    0.2500
   Turn off err/grad.   ShiftErr        ....    0.0010
 Zerner damping         CNVZerner       .... off
 Static damping         CNVDamp         .... on
   Fraction old density DampFac         ....    0.7000
   Max. Damping (<1)    DampMax         ....    0.9800
   Min. Damping (>=0)   DampMin         ....    0.0000
   Turn off err/grad.   DampErr         ....    0.1000
 Fernandez-Rico         CNVRico         .... off

SCF Procedure:
 Maximum # iterations   MaxIter         ....   125
 SCF integral mode      SCFMode         .... Direct
   Integral package                     .... LIBINT
 Reset frequeny         DirectResetFreq ....    20
 Integral Threshold     Thresh          ....  2.500e-11 Eh
 Primitive CutOff       TCut            ....  2.500e-12 Eh

Convergence Tolerance:
 Convergence Check Mode ConvCheckMode   .... Total+1el-Energy
 Energy Change          TolE            ....  1.000e-08 Eh
 1-El. energy change                    ....  1.000e-05 Eh
 Orbital Gradient       TolG            ....  1.000e-05
 Orbital Rotation angle TolX            ....  1.000e-05
 DIIS Error             TolErr          ....  5.000e-07


Diagonalization of the overlap matrix:
Smallest eigenvalue                        ... 1.182e-04
Time for diagonalization                   ...    0.020 sec
Threshold for overlap eigenvalues          ... 1.000e-08
Number of eigenvalues below threshold      ... 0
Time for construction of square roots      ...    0.012 sec
Total time needed                          ...    0.033 sec

-------------------
DFT GRID GENERATION
-------------------

General Integration Accuracy     IntAcc      ...  4.340
Radial Grid Type                 RadialGrid  ... Gauss-Chebyshev
Angular Grid (max. acc.)         AngularGrid ... Lebedev-194
Angular grid pruning method      GridPruning ... 3 (G Style)
Weight generation scheme         WeightScheme... Becke
Basis function cutoff            BFCut       ...    1.0000e-11
Integration weight cutoff        WCut        ...    1.0000e-14
Grids for H and He will be reduced by one unit

# of grid points (after initial pruning)     ...  34070 (   0.0 sec)
# of grid points (after weights+screening)   ...  31656 (   0.0 sec)
nearest neighbour list constructed           ...    0.0 sec
Grid point re-assignment to atoms done       ...    0.0 sec
Grid point division into batches done        ...    0.1 sec
Reduced shell lists constructed in    0.1 sec

Total number of grid points                  ...    31656
Total number of batches                      ...      501
Average number of points per batch           ...       63
Average number of grid points per atom       ...     2261
Average number of shells per batch           ...    83.36 (77.91%)
Average number of basis functions per batch  ...   215.89 (81.47%)
Average number of large shells per batch     ...    69.72 (83.64%)
Average number of large basis fcns per batch ...   177.12 (82.04%)
Maximum spatial batch extension              ...   2.84,  5.52,  2.40 au
Average spatial batch extension              ...   0.15,  0.16,  0.15 au

Time for grid setup =    0.195 sec

Loading Hartree-Fock densities                     ... done
Calculating cut-offs                               ... done
Setting up the integral package                    ... done
Initializing the effective Hamiltonian             ... done
Starting the Coulomb interaction                   ... done (   0.0 sec)
Reading the grid                                   ... done
Mapping shells                                     ... done
Starting the XC term evaluation                    ... done (   0.2 sec)
  promolecular density results
     # of electrons  =     60.995990327
     EX              =    -60.580198842
     EC              =     -2.131521455
     EX+EC           =    -62.711720296
Transforming the Hamiltonian                       ... done (   0.0 sec)
Diagonalizing the Hamiltonian                      ... done (   0.0 sec)
Back transforming the eigenvectors                 ... done (   0.0 sec)
Now organizing SCF variables                       ... done
--------------
SCF ITERATIONS
--------------
ITER       Energy         Delta-E        Max-DP      RMS-DP      [F,P]     Damp
               ***  Starting incremental Fock matrix formation  ***
  0   -663.5838418117   0.000000000000 0.03912078  0.00084074  0.1885892 0.7000
  1   -663.6653483909  -0.081506579148 0.02978045  0.00059818  0.0890756 0.7000
                               ***Turning on DIIS***
  2   -663.6950476174  -0.029699226499 0.04494952  0.00103692  0.0336166 0.0000
  3   -663.7392108212  -0.044163203878 0.02258890  0.00045558  0.0452075 0.0000
  4   -663.7526721576  -0.013461336365 0.01212654  0.00015201  0.0078390 0.0000
  5   -663.7531582681  -0.000486110508 0.00217354  0.00006049  0.0041544 0.0000
                      *** Initiating the SOSCF procedure ***
                           *** Shutting down DIIS ***
                      *** Re-Reading the Fockian *** 
                      *** Removing any level shift *** 
ITER      Energy       Delta-E        Grad      Rot      Max-DP    RMS-DP
  6   -663.75322154  -0.0000632724  0.000276  0.000276  0.001119  0.000033
               *** Restarting incremental Fock matrix formation ***
  7   -663.75322435  -0.0000028145  0.000406  0.001560  0.001218  0.000021
  8   -663.75321644   0.0000079105  0.000878  0.001095  0.000709  0.000014
  9   -663.75322690  -0.0000104556  0.000035  0.000168  0.000142  0.000002
 10   -663.75322682   0.0000000826  0.000089  0.000138  0.000087  0.000002
 11   -663.75322694  -0.0000001258  0.000006  0.000016  0.000022  0.000000
 12   -663.75322694   0.0000000013  0.000008  0.000008  0.000013  0.000000
                  ***Gradient check signals convergence***
              ***Rediagonalizing the Fockian in SOSCF/NRSCF***

               *****************************************************
               *                     SUCCESS                       *
               *           SCF CONVERGED AFTER  13 CYCLES          *
               *****************************************************

Setting up the final grid:

General Integration Accuracy     IntAcc      ...  5.010
Radial Grid Type                 RadialGrid  ... Gauss-Chebyshev
Angular Grid (max. acc.)         AngularGrid ... Lebedev-434
Angular grid pruning method      GridPruning ... 3 (G Style)
Weight generation scheme         WeightScheme... Becke
Basis function cutoff            BFCut       ...    1.0000e-11
Integration weight cutoff        WCut        ...    1.0000e-14
Grids for H and He will be reduced by one unit

# of grid points (after initial pruning)     ... 122556 (   0.0 sec)
# of grid points (after weights+screening)   ... 112740 (   0.1 sec)
nearest neighbour list constructed           ...    0.0 sec
Grid point re-assignment to atoms done       ...    0.0 sec
Grid point division into batches done        ...    0.9 sec
Reduced shell lists constructed in    1.1 sec

Total number of grid points                  ...   112740
Total number of batches                      ...     1769
Average number of points per batch           ...       63
Average number of grid points per atom       ...     8053
Average number of shells per batch           ...    82.94 (77.52%)
Average number of basis functions per batch  ...   214.26 (80.85%)
Average number of large shells per batch     ...    69.09 (83.29%)
Average number of large basis fcns per batch ...   175.75 (82.03%)
Maximum spatial batch extension              ...   2.48,  7.27,  3.25 au
Average spatial batch extension              ...   0.10,  0.11,  0.10 au

Final grid set up in    1.2 sec
Final integration                            ... done (   0.6 sec)
Change in XC energy                          ...     0.000256122
Integrated number of electrons               ...    59.999994688
Previous integrated no of electrons          ...    59.999371358
Total Energy       :         -663.75297082 Eh          -18061.63657 eV
  Last Energy change         ...   -3.3930e-09  Tolerance :   1.0000e-08
  Last MAX-Density change    ...    1.9858e-06  Tolerance :   1.0000e-07
             **** THE GBW FILE WAS UPDATED (7114_+.gbw) ****
             **** DENSITY FILE WAS UPDATED (7114_+.scfp.tmp) ****
             **** ENERGY FILE WAS UPDATED (7114_+.en.tmp) ****
Total SCF time: 0 days 0 hours 1 min 13 sec 
           ************************************************************
           *              Shut down parallel processing               *
           ************************************************************

-------------------------   --------------------
FINAL SINGLE POINT ENERGY      -663.752970823399
-------------------------   --------------------



           ************************************************************
           *        Program running with 8 parallel MPI-processes     *
           *              working on a common directory               *
           ************************************************************
------------------------------------------------------------------------------
                         ORCA SCF GRADIENT CALCULATION
------------------------------------------------------------------------------

Gradient of the Kohn-Sham DFT energy:
Kohn-Sham wavefunction type      ... RKS
Hartree-Fock exchange scaling    ...    0.250
Number of operators              ...    1
Number of atoms                  ...   14
Basis set dimensions             ...  265
Integral neglect threshold       ... 2.5e-11
Integral primitive cutoff        ... 2.5e-12

Nuclear repulsion gradient       ... done
One Electron Gradient            ... done
Pre-screening matrix             ... done
Starting the two electron gradient:
Two electron gradient done
Exchange-correlation gradient    ... done

------------------
CARTESIAN GRADIENT
------------------

   1   N   :   -0.000119191   -0.000009416   -0.000166318
   2   C   :    0.000259085   -0.000103800    0.000285538
   3   C   :    0.000016461    0.000035641   -0.000006481
   4   N   :   -0.000060909   -0.000048992   -0.000061881
   5   S   :    0.000020783    0.000046902   -0.000014762
   6   C   :   -0.000068726   -0.000004788    0.000061140
   7   C   :    0.000150659    0.000002461    0.000000376
   8   H   :   -0.000021660   -0.000007666   -0.000001116
   9   H   :    0.000008259    0.000003012    0.000092416
  10   H   :   -0.000005892    0.000042090    0.000049283
  11   H   :   -0.000066219    0.000145643   -0.000100461
  12   H   :   -0.000044154   -0.000101759   -0.000085119
  13   H   :    0.000013661   -0.000007180    0.000007590
  14   H   :   -0.000082156    0.000007853   -0.000060204

Norm of the cartesian gradient     ...    0.000571229
RMS gradient                       ...    0.000088143
MAX gradient                       ...    0.000285538

-------
TIMINGS
-------

Total SCF gradient time            ...       30.885 sec

One electron gradient       ....       0.082 sec  (  0.3%)
Prescreening matrices       ....       0.520 sec  (  1.7%)
Two electron gradient       ....      26.822 sec  ( 86.8%)
XC gradient                 ....       3.263 sec  ( 10.6%)
           ************************************************************
           *              Shut down parallel processing               *
           ************************************************************
------------------------------------------------------------------------------
                         ORCA GEOMETRY RELAXATION STEP
------------------------------------------------------------------------------

Reading the OPT-File                    .... done
Getting information on internals        .... done
Copying old internal coords+grads       .... done
Making the new internal coordinates     .... (new redundants).... done
Validating the new internal coordinates .... (new redundants).... done
Calculating the B-matrix                .... done
Calculating the G,G- and P matrices     .... done
Transforming gradient to internals      .... done
Projecting the internal gradient        .... done
Number of atoms                         ....  14
Number of internal coordinates          ....  65
Current Energy                          ....  -663.752970823 Eh
Current gradient norm                   ....     0.000571229 Eh/bohr
Maximum allowed component of the step   ....  0.300
Current trust radius                    ....  0.300
Evaluating the initial hessian          ....  (Almloef) done
Projecting the Hessian                  .... done
Forming the augmented Hessian           .... done
Diagonalizing the augmented Hessian     .... done
Last element of RFO vector              ....  0.999993520
Lowest eigenvalues of augmented Hessian:
 -0.000000567  0.012465923  0.012978994  0.017123355  0.021681492
Length of the computed step             ....  0.003599946
The final length of the internal step   ....  0.003599946
Converting the step to cartesian space:
 Initial RMS(Int)=    0.0004465184
Transforming coordinates:
 Iter   0:  RMS(Cart)=    0.0006404841 RMS(Int)=    0.0004465095
 Iter   1:  RMS(Cart)=    0.0000003383 RMS(Int)=    0.0000002604
 Iter   2:  RMS(Cart)=    0.0000000003 RMS(Int)=    0.0000000002
done
Storing new coordinates                 .... done

                                .--------------------.
          ----------------------|Geometry convergence|---------------------
          Item                value                 Tolerance   Converged
          -----------------------------------------------------------------
          RMS gradient        0.00004407            0.00003000      NO
          MAX gradient        0.00018949            0.00010000      NO
          RMS step            0.00044652            0.00060000      YES
          MAX step            0.00110972            0.00100000      NO
          ....................................................
          Max(Bonds)      0.0003      Max(Angles)    0.01
          Max(Dihed)        0.06      Max(Improp)    0.00
          -----------------------------------------------------------------

The optimization has not yet converged - more geometry cycles are needed


    ---------------------------------------------------------------------------
                         Redundant Internal Coordinates
                            (Angstroem and degrees)

        Definition                    Value    dE/dq     Step     New-Value
    ----------------------------------------------------------------------------
     1. B(C   1,N   0)                1.4980 -0.000140  0.0002    1.4982   
     2. B(C   2,C   1)                1.5045 -0.000064  0.0001    1.5046   
     3. B(N   3,C   2)                1.3153 -0.000083  0.0001    1.3154   
     4. B(S   4,N   3)                1.6348 -0.000005  0.0000    1.6348   
     5. B(C   5,S   4)                1.6879  0.000008 -0.0000    1.6879   
     6. B(C   6,C   5)                1.3698  0.000059 -0.0000    1.3697   
     7. B(C   6,C   2)                1.4049 -0.000028  0.0000    1.4050   
     8. B(H   7,N   0)                1.0182 -0.000004  0.0000    1.0183   
     9. B(H   8,N   0)                1.0560  0.000091 -0.0001    1.0559   
    10. B(H   9,N   0)                1.0188  0.000018 -0.0000    1.0188   
    11. B(H  10,C   1)                1.0902  0.000189 -0.0003    1.0899   
    12. B(H  11,C   1)                1.0909  0.000137 -0.0002    1.0907   
    13. B(H  12,C   5)                1.0811 -0.000007  0.0000    1.0811   
    14. B(H  13,C   6)                1.0811  0.000101 -0.0001    1.0809   
    15. A(C   1,N   0,H   9)          112.61 -0.000005    0.00    112.61   
    16. A(H   7,N   0,H   9)          108.41  0.000032   -0.01    108.40   
    17. A(H   7,N   0,H   8)          110.42  0.000016   -0.00    110.42   
    18. A(C   1,N   0,H   8)          103.42 -0.000013    0.01    103.43   
    19. A(C   1,N   0,H   7)          113.12 -0.000019    0.00    113.12   
    20. A(H   8,N   0,H   9)          108.71 -0.000012    0.01    108.72   
    21. A(H  10,C   1,H  11)          108.24 -0.000006    0.00    108.24   
    22. A(N   0,C   1,C   2)          106.37  0.000017   -0.00    106.36   
    23. A(C   2,C   1,H  11)          111.69  0.000022   -0.01    111.68   
    24. A(N   0,C   1,H  11)          108.69  0.000009   -0.01    108.69   
    25. A(C   2,C   1,H  10)          112.41 -0.000028    0.01    112.42   
    26. A(N   0,C   1,H  10)          109.37 -0.000013    0.01    109.38   
    27. A(N   3,C   2,C   6)          116.25  0.000010   -0.00    116.25   
    28. A(C   1,C   2,C   6)          127.75  0.000018   -0.00    127.75   
    29. A(C   1,C   2,N   3)          116.00 -0.000028    0.00    116.00   
    30. A(C   2,N   3,S   4)          110.03  0.000018   -0.00    110.03   
    31. A(N   3,S   4,C   5)           94.48  0.000004   -0.00     94.48   
    32. A(S   4,C   5,C   6)          110.04 -0.000043    0.00    110.04   
    33. A(C   6,C   5,H  12)          128.08  0.000038   -0.00    128.08   
    34. A(S   4,C   5,H  12)          121.88  0.000005    0.00    121.88   
    35. A(C   5,C   6,H  13)          124.83 -0.000006    0.00    124.83   
    36. A(C   2,C   6,H  13)          125.97 -0.000005    0.00    125.97   
    37. A(C   2,C   6,C   5)          109.20  0.000011   -0.00    109.20   
    38. D(H  10,C   1,N   0,H   9)     11.60  0.000018   -0.05     11.55   
    39. D(H  11,C   1,N   0,H   8)   -113.25 -0.000015   -0.03   -113.28   
    40. D(H  10,C   1,N   0,H   8)    128.77 -0.000006   -0.03    128.74   
    41. D(C   2,C   1,N   0,H   8)      7.15  0.000025   -0.05      7.10   
    42. D(C   2,C   1,N   0,H   7)    126.62  0.000026   -0.05    126.57   
    43. D(C   2,C   1,N   0,H   9)   -110.03  0.000049   -0.06   -110.09   
    44. D(H  11,C   1,N   0,H   9)    129.57  0.000009   -0.04    129.53   
    45. D(H  10,C   1,N   0,H   7)   -111.76 -0.000005   -0.03   -111.79   
    46. D(H  11,C   1,N   0,H   7)      6.22 -0.000014   -0.03      6.19   
    47. D(C   6,C   2,C   1,H  10)     56.02 -0.000007    0.03     56.05   
    48. D(N   3,C   2,C   1,H  11)    113.30  0.000013    0.01    113.31   
    49. D(N   3,C   2,C   1,H  10)   -124.82  0.000001    0.02   -124.80   
    50. D(N   3,C   2,C   1,N   0)     -5.15 -0.000020    0.03     -5.12   
    51. D(C   6,C   2,C   1,H  11)    -65.87  0.000006    0.02    -65.85   
    52. D(C   6,C   2,C   1,N   0)    175.68 -0.000027    0.04    175.73   
    53. D(S   4,N   3,C   2,C   6)      0.01 -0.000021    0.05      0.06   
    54. D(S   4,N   3,C   2,C   1)   -179.26 -0.000027    0.06   -179.20   
    55. D(C   5,S   4,N   3,C   2)      0.03  0.000023   -0.06     -0.03   
    56. D(H  12,C   5,S   4,N   3)   -179.97 -0.000009    0.03   -179.94   
    57. D(C   6,C   5,S   4,N   3)     -0.07 -0.000020    0.06     -0.01   
    58. D(H  13,C   6,C   5,H  12)     -0.04  0.000004   -0.01     -0.05   
    59. D(C   2,C   6,C   5,H  12)    179.98 -0.000000   -0.01    179.97   
    60. D(C   2,C   6,C   5,S   4)      0.08  0.000011   -0.04      0.04   
    61. D(H  13,C   6,C   2,N   3)    179.96  0.000002   -0.01    179.95   
    62. D(H  13,C   6,C   2,C   1)     -0.87  0.000009   -0.02     -0.90   
    63. D(H  13,C   6,C   5,S   4)   -179.94  0.000015   -0.03   -179.98   
    64. D(C   5,C   6,C   2,N   3)     -0.06  0.000006   -0.00     -0.07   
    65. D(C   5,C   6,C   2,C   1)    179.11  0.000013   -0.02    179.09   
    ----------------------------------------------------------------------------

         *************************************************************
         *                GEOMETRY OPTIMIZATION CYCLE   2            *
         *************************************************************
---------------------------------
CARTESIAN COORDINATES (ANGSTROEM)
---------------------------------
  N      1.789224   -0.000075   -1.995467
  C      0.294409   -0.055745   -2.078810
  C     -0.211190   -0.007804   -0.662539
  N      0.707042   -0.038063    0.278842
  S     -0.000106   -0.000770    1.752337
  C     -1.572801    0.058259    1.142274
  C     -1.545770    0.048949   -0.227144
  H      2.246184   -0.760688   -2.494961
  H      1.979923   -0.072667   -0.959497
  H      2.167994    0.881987   -2.336686
  H     -0.065794    0.780890   -2.677284
  H      0.006513   -0.981660   -2.578200
  H     -2.436111    0.097667    1.791814
  H     -2.419944    0.080358   -0.862147

----------------------------
CARTESIAN COORDINATES (A.U.)
----------------------------
  NO LB      ZA    FRAG    MASS        X           Y           Z
   0 N     7.0000    0    14.007          3.381143459154691         -0.000142505185883         -3.770885863642213
   1 C     6.0000    0    12.011          0.556351851305067         -0.105342606831364         -3.928381160717939
   2 C     6.0000    0    12.011         -0.399091000349732         -0.014746499388241         -1.252017349529683
   3 N     7.0000    0    14.007          1.336115229482910         -0.071928247134591          0.526934120363441
   4 S    16.0000    0    32.060         -0.000200085134154         -0.001455251203249          3.311436855459712
   5 C     6.0000    0    12.011         -2.972162534810332          0.110093427957316          2.158584167345227
   6 C     6.0000    0    12.011         -2.921081541310813          0.092499831510621         -0.429240263478416
   7 H     1.0000    0     1.008          4.244673546073855         -1.437491185821025         -4.714792967484109
   8 H     1.0000    0     1.008          3.741512973372337         -0.137320116942819         -1.813186612708872
   9 H     1.0000    0     1.008          4.096915684386603          1.666713784011668         -4.415697088882051
  10 H     1.0000    0     1.008         -0.124333236473495          1.475667338423386         -5.059333673395741
  11 H     1.0000    0     1.008          0.012308387310908         -1.855068840501822         -4.872091527892971
  12 H     1.0000    0     1.008         -4.603582901781117          0.184564575746072          3.386037521844915
  13 H     1.0000    0     1.008         -4.573031021466615          0.151854629621194         -1.629222556861762

--------------------------------
INTERNAL COORDINATES (ANGSTROEM)
--------------------------------
 N      0   0   0   0.000000     0.000     0.000
 C      1   0   0   1.498172     0.000     0.000
 C      2   1   0   1.504577   106.364     0.000
 N      3   2   1   1.315394   115.999   354.884
 S      4   3   2   1.634820   110.033   180.803
 C      5   4   3   1.687907    94.477   359.972
 C      6   5   4   1.369716   110.043     0.000
 H      1   2   3   1.018252   113.124   126.568
 H      1   2   3   1.055874   103.428     7.097
 H      1   2   3   1.018789   112.612   249.907
 H      2   1   3   1.089897   109.377   121.641
 H      2   1   3   1.090685   108.686   239.624
 H      6   5   4   1.081092   121.882   180.059
 H      7   6   5   1.080924   124.832   180.024

---------------------------
INTERNAL COORDINATES (A.U.)
---------------------------
 N      0   0   0   0.000000     0.000     0.000
 C      1   0   0   2.831134     0.000     0.000
 C      2   1   0   2.843238   106.364     0.000
 N      3   2   1   2.485735   115.999   354.884
 S      4   3   2   3.089362   110.033   180.803
 C      5   4   3   3.189682    94.477   359.972
 C      6   5   4   2.588388   110.043     0.000
 H      1   2   3   1.924218   113.124   126.568
 H      1   2   3   1.995312   103.428     7.097
 H      1   2   3   1.925233   112.612   249.907
 H      2   1   3   2.059606   109.377   121.641
 H      2   1   3   2.061095   108.686   239.624
 H      6   5   4   2.042968   121.882   180.059
 H      7   6   5   2.042650   124.832   180.024



           ************************************************************
           *        Program running with 8 parallel MPI-processes     *
           *              working on a common directory               *
           ************************************************************
           ************************************************************
           *              Shut down parallel processing               *
           ************************************************************


           ************************************************************
           *        Program running with 8 parallel MPI-processes     *
           *              working on a common directory               *
           ************************************************************

Diagonalization of the overlap matrix:
Smallest eigenvalue                        ... 1.183e-04
Time for diagonalization                   ...    0.020 sec
Threshold for overlap eigenvalues          ... 1.000e-08
Number of eigenvalues below threshold      ... 0
Time for construction of square roots      ...    0.013 sec
Total time needed                          ...    0.033 sec

-------------------
DFT GRID GENERATION
-------------------

General Integration Accuracy     IntAcc      ...  4.340
Radial Grid Type                 RadialGrid  ... Gauss-Chebyshev
Angular Grid (max. acc.)         AngularGrid ... Lebedev-194
Angular grid pruning method      GridPruning ... 3 (G Style)
Weight generation scheme         WeightScheme... Becke
Basis function cutoff            BFCut       ...    1.0000e-11
Integration weight cutoff        WCut        ...    1.0000e-14
Grids for H and He will be reduced by one unit

# of grid points (after initial pruning)     ...  34070 (   0.0 sec)
# of grid points (after weights+screening)   ...  31654 (   0.0 sec)
nearest neighbour list constructed           ...    0.0 sec
Grid point re-assignment to atoms done       ...    0.0 sec
Grid point division into batches done        ...    0.1 sec
Reduced shell lists constructed in    0.1 sec

Total number of grid points                  ...    31654
Total number of batches                      ...      501
Average number of points per batch           ...       63
Average number of grid points per atom       ...     2261
Average number of shells per batch           ...    83.36 (77.91%)
Average number of basis functions per batch  ...   215.80 (81.43%)
Average number of large shells per batch     ...    69.72 (83.64%)
Average number of large basis fcns per batch ...   177.16 (82.09%)
Maximum spatial batch extension              ...   2.84,  5.52,  2.40 au
Average spatial batch extension              ...   0.15,  0.16,  0.15 au

Time for grid setup =    0.195 sec

--------------
SCF ITERATIONS
--------------
ITER       Energy         Delta-E        Max-DP      RMS-DP      [F,P]     Damp
               ***  Starting incremental Fock matrix formation  ***
                      *** Initiating the SOSCF procedure ***
                      *** Re-Reading the Fockian *** 
                      *** Removing any level shift *** 
ITER      Energy       Delta-E        Grad      Rot      Max-DP    RMS-DP
  0   -663.75322602 -663.7532260188  0.000085  0.000085  0.000244  0.000005
               *** Restarting incremental Fock matrix formation ***
  1   -663.75322679  -0.0000007724  0.000033  0.000111  0.000098  0.000002
  2   -663.75322689  -0.0000000939  0.000016  0.000062  0.000055  0.000001
  3   -663.75322688   0.0000000096  0.000036  0.000048  0.000030  0.000001
  4   -663.75322689  -0.0000000163  0.000005  0.000011  0.000011  0.000000
  5   -663.75322689  -0.0000000001  0.000004  0.000006  0.000006  0.000000
                  ***Gradient check signals convergence***
              ***Rediagonalizing the Fockian in SOSCF/NRSCF***

               *****************************************************
               *                     SUCCESS                       *
               *           SCF CONVERGED AFTER   6 CYCLES          *
               *****************************************************

Setting up the final grid:

General Integration Accuracy     IntAcc      ...  5.010
Radial Grid Type                 RadialGrid  ... Gauss-Chebyshev
Angular Grid (max. acc.)         AngularGrid ... Lebedev-434
Angular grid pruning method      GridPruning ... 3 (G Style)
Weight generation scheme         WeightScheme... Becke
Basis function cutoff            BFCut       ...    1.0000e-11
Integration weight cutoff        WCut        ...    1.0000e-14
Grids for H and He will be reduced by one unit

# of grid points (after initial pruning)     ... 122556 (   0.0 sec)
# of grid points (after weights+screening)   ... 112741 (   0.1 sec)
nearest neighbour list constructed           ...    0.0 sec
Grid point re-assignment to atoms done       ...    0.0 sec
Grid point division into batches done        ...    0.9 sec
Reduced shell lists constructed in    1.1 sec

Total number of grid points                  ...   112741
Total number of batches                      ...     1769
Average number of points per batch           ...       63
Average number of grid points per atom       ...     8053
Average number of shells per batch           ...    82.93 (77.50%)
Average number of basis functions per batch  ...   214.18 (80.82%)
Average number of large shells per batch     ...    69.08 (83.30%)
Average number of large basis fcns per batch ...   175.74 (82.05%)
Maximum spatial batch extension              ...   2.48,  7.27,  3.25 au
Average spatial batch extension              ...   0.10,  0.11,  0.10 au

Final grid set up in    1.3 sec
Final integration                            ... done (   1.4 sec)
Change in XC energy                          ...     0.000255816
Integrated number of electrons               ...    59.999994709
Previous integrated no of electrons          ...    59.999369872
Total Energy       :         -663.75297108 Eh          -18061.63658 eV
  Last Energy change         ...   -5.3979e-10  Tolerance :   1.0000e-08
  Last MAX-Density change    ...    1.6605e-06  Tolerance :   1.0000e-07
             **** THE GBW FILE WAS UPDATED (7114_+.gbw) ****
             **** DENSITY FILE WAS UPDATED (7114_+.scfp.tmp) ****
             **** ENERGY FILE WAS UPDATED (7114_+.en.tmp) ****
Total SCF time: 0 days 0 hours 0 min 35 sec 
           ************************************************************
           *              Shut down parallel processing               *
           ************************************************************

-------------------------   --------------------
FINAL SINGLE POINT ENERGY      -663.752971076291
-------------------------   --------------------



           ************************************************************
           *        Program running with 8 parallel MPI-processes     *
           *              working on a common directory               *
           ************************************************************
------------------------------------------------------------------------------
                         ORCA SCF GRADIENT CALCULATION
------------------------------------------------------------------------------

Gradient of the Kohn-Sham DFT energy:
Kohn-Sham wavefunction type      ... RKS
Hartree-Fock exchange scaling    ...    0.250
Number of operators              ...    1
Number of atoms                  ...   14
Basis set dimensions             ...  265
Integral neglect threshold       ... 2.5e-11
Integral primitive cutoff        ... 2.5e-12

Nuclear repulsion gradient       ... done
One Electron Gradient            ... done
Pre-screening matrix             ... done
Starting the two electron gradient:
Two electron gradient done
Exchange-correlation gradient    ... done

------------------
CARTESIAN GRADIENT
------------------

   1   N   :   -0.000030852   -0.000031274   -0.000080104
   2   C   :    0.000089622   -0.000044619    0.000068329
   3   C   :   -0.000025223    0.000004426   -0.000021544
   4   N   :   -0.000012697    0.000063368   -0.000005144
   5   S   :    0.000013735   -0.000074942   -0.000001319
   6   C   :   -0.000035654    0.000066257    0.000007184
   7   C   :    0.000034977   -0.000022119   -0.000012689
   8   H   :   -0.000007135    0.000004055   -0.000008305
   9   H   :    0.000002472    0.000016979    0.000027990
  10   H   :   -0.000004188    0.000015049    0.000047938
  11   H   :   -0.000025433   -0.000004362   -0.000009889
  12   H   :   -0.000005301    0.000005919   -0.000018628
  13   H   :    0.000007393    0.000006173    0.000006900
  14   H   :   -0.000001718   -0.000004910   -0.000000717

Norm of the cartesian gradient     ...    0.000216455
RMS gradient                       ...    0.000033400
MAX gradient                       ...    0.000089622

-------
TIMINGS
-------

Total SCF gradient time            ...       30.904 sec

One electron gradient       ....       0.121 sec  (  0.4%)
Prescreening matrices       ....       0.509 sec  (  1.6%)
Two electron gradient       ....      26.340 sec  ( 85.2%)
XC gradient                 ....       2.916 sec  (  9.4%)
           ************************************************************
           *              Shut down parallel processing               *
           ************************************************************
------------------------------------------------------------------------------
                         ORCA GEOMETRY RELAXATION STEP
------------------------------------------------------------------------------

Reading the OPT-File                    .... done
Getting information on internals        .... done
Copying old internal coords+grads       .... done
Making the new internal coordinates     .... (new redundants).... done
Validating the new internal coordinates .... (new redundants).... done
Calculating the B-matrix                .... done
Calculating the G,G- and P matrices     .... done
Transforming gradient to internals      .... done
Projecting the internal gradient        .... done
Number of atoms                         ....  14
Number of internal coordinates          ....  65
Current Energy                          ....  -663.752971076 Eh
Current gradient norm                   ....     0.000216455 Eh/bohr
Maximum allowed component of the step   ....  0.300
Current trust radius                    ....  0.300
Updating the Hessian (BFGS)             .... done
Forming the augmented Hessian           .... done
Diagonalizing the augmented Hessian     .... done
Last element of RFO vector              ....  0.999986414
Lowest eigenvalues of augmented Hessian:
 -0.000000443  0.009237931  0.012594090  0.019365147  0.022908333
Length of the computed step             ....  0.005212762
The final length of the internal step   ....  0.005212762
Converting the step to cartesian space:
 Initial RMS(Int)=    0.0006465635
Transforming coordinates:
 Iter   0:  RMS(Cart)=    0.0011874258 RMS(Int)=    0.0006465675
 Iter   1:  RMS(Cart)=    0.0000008330 RMS(Int)=    0.0000005851
 Iter   2:  RMS(Cart)=    0.0000000011 RMS(Int)=    0.0000000007
done
Storing new coordinates                 .... done

                                .--------------------.
          ----------------------|Geometry convergence|---------------------
          Item                value                 Tolerance   Converged
          -----------------------------------------------------------------
          Energy change      -0.00000025            0.00000100      YES
          RMS gradient        0.00001607            0.00003000      YES
          MAX gradient        0.00004296            0.00010000      YES
          RMS step            0.00064656            0.00060000      NO
          MAX step            0.00169672            0.00100000      NO
          ....................................................
          Max(Bonds)      0.0002      Max(Angles)    0.02
          Max(Dihed)        0.10      Max(Improp)    0.00
          -----------------------------------------------------------------

       The energies and gradients are converged
       and the convergence on bond distances, angles, dihedrals and impropers
       is acceptable.
       Convergence will therefore be signaled now


                    ***********************HURRAY********************
                    ***        THE OPTIMIZATION HAS CONVERGED     ***
                    *************************************************


    ---------------------------------------------------------------------------
                         Redundant Internal Coordinates

                          --- Optimized Parameters ---  
                            (Angstroem and degrees)

        Definition                    OldVal   dE/dq     Step     FinalVal
    ----------------------------------------------------------------------------
     1. B(C   1,N   0)                1.4982 -0.000042  0.0002    1.4984   
     2. B(C   2,C   1)                1.5046 -0.000016  0.0001    1.5047   
     3. B(N   3,C   2)                1.3154 -0.000012  0.0001    1.3155   
     4. B(S   4,N   3)                1.6348 -0.000006  0.0000    1.6348   
     5. B(C   5,S   4)                1.6879  0.000011 -0.0000    1.6879   
     6. B(C   6,C   5)                1.3697  0.000019 -0.0001    1.3697   
     7. B(C   6,C   2)                1.4050 -0.000014  0.0000    1.4050   
     8. B(H   7,N   0)                1.0183 -0.000002  0.0000    1.0183   
     9. B(H   8,N   0)                1.0559  0.000026 -0.0001    1.0557   
    10. B(H   9,N   0)                1.0188 -0.000004 -0.0000    1.0188   
    11. B(H  10,C   1)                1.0899  0.000011 -0.0002    1.0897   
    12. B(H  11,C   1)                1.0907  0.000005 -0.0002    1.0905   
    13. B(H  12,C   5)                1.0811 -0.000002  0.0000    1.0811   
    14. B(H  13,C   6)                1.0809  0.000001 -0.0001    1.0808   
    15. A(C   1,N   0,H   9)          112.61  0.000000    0.00    112.61   
    16. A(H   7,N   0,H   9)          108.40  0.000013   -0.01    108.38   
    17. A(H   7,N   0,H   8)          110.42  0.000012   -0.01    110.41   
    18. A(C   1,N   0,H   8)          103.43 -0.000006    0.01    103.44   
    19. A(C   1,N   0,H   7)          113.12 -0.000003   -0.00    113.12   
    20. A(H   8,N   0,H   9)          108.72 -0.000018    0.01    108.74   
    21. A(H  10,C   1,H  11)          108.24 -0.000011    0.01    108.25   
    22. A(N   0,C   1,C   2)          106.36  0.000011   -0.01    106.36   
    23. A(C   2,C   1,H  11)          111.68  0.000016   -0.02    111.66   
    24. A(N   0,C   1,H  11)          108.69  0.000002   -0.01    108.68   
    25. A(C   2,C   1,H  10)          112.42 -0.000024    0.02    112.44   
    26. A(N   0,C   1,H  10)          109.38  0.000008    0.01    109.38   
    27. A(N   3,C   2,C   6)          116.25 -0.000003   -0.00    116.25   
    28. A(C   1,C   2,C   6)          127.75  0.000017   -0.00    127.74   
    29. A(C   1,C   2,N   3)          116.00 -0.000014    0.00    116.00   
    30. A(C   2,N   3,S   4)          110.03  0.000010   -0.00    110.03   
    31. A(N   3,S   4,C   5)           94.48 -0.000002   -0.00     94.48   
    32. A(S   4,C   5,C   6)          110.04 -0.000014    0.01    110.05   
    33. A(C   6,C   5,H  12)          128.08  0.000018   -0.01    128.07   
    34. A(S   4,C   5,H  12)          121.88 -0.000005    0.00    121.88   
    35. A(C   5,C   6,H  13)          124.83 -0.000005    0.00    124.83   
    36. A(C   2,C   6,H  13)          125.97 -0.000003    0.00    125.97   
    37. A(C   2,C   6,C   5)          109.20  0.000008   -0.00    109.20   
    38. D(H  10,C   1,N   0,H   9)     11.55  0.000018   -0.08     11.47   
    39. D(H  11,C   1,N   0,H   8)   -113.28 -0.000015   -0.05   -113.32   
    40. D(H  10,C   1,N   0,H   8)    128.74 -0.000007   -0.05    128.68   
    41. D(C   2,C   1,N   0,H   8)      7.10  0.000011   -0.08      7.02   
    42. D(C   2,C   1,N   0,H   7)    126.57  0.000020   -0.08    126.49   
    43. D(C   2,C   1,N   0,H   9)   -110.09  0.000036   -0.10   -110.19   
    44. D(H  11,C   1,N   0,H   9)    129.53  0.000010   -0.07    129.46   
    45. D(H  10,C   1,N   0,H   7)   -111.79  0.000003   -0.06   -111.85   
    46. D(H  11,C   1,N   0,H   7)      6.19 -0.000005   -0.05      6.14   
    47. D(C   6,C   2,C   1,H  10)     56.05 -0.000017    0.07     56.11   
    48. D(N   3,C   2,C   1,H  11)    113.31  0.000009    0.01    113.32   
    49. D(N   3,C   2,C   1,H  10)   -124.80 -0.000011    0.03   -124.77   
    50. D(N   3,C   2,C   1,N   0)     -5.12 -0.000008    0.04     -5.08   
    51. D(C   6,C   2,C   1,H  11)    -65.85  0.000003    0.05    -65.79   
    52. D(C   6,C   2,C   1,N   0)    175.73 -0.000014    0.08    175.81   
    53. D(S   4,N   3,C   2,C   6)      0.06  0.000027   -0.04      0.02   
    54. D(S   4,N   3,C   2,C   1)   -179.20  0.000021   -0.00   -179.20   
    55. D(C   5,S   4,N   3,C   2)     -0.03 -0.000040    0.07      0.04   
    56. D(H  12,C   5,S   4,N   3)   -179.94  0.000015   -0.03   -179.97   
    57. D(C   6,C   5,S   4,N   3)     -0.01  0.000043   -0.08     -0.09   
    58. D(H  13,C   6,C   5,H  12)     -0.05  0.000008   -0.03     -0.07   
    59. D(C   2,C   6,C   5,H  12)    179.97 -0.000003    0.02    179.98   
    60. D(C   2,C   6,C   5,S   4)      0.04 -0.000034    0.07      0.11   
    61. D(H  13,C   6,C   2,N   3)    179.95 -0.000006    0.02    179.97   
    62. D(H  13,C   6,C   2,C   1)     -0.90 -0.000000   -0.02     -0.92   
    63. D(H  13,C   6,C   5,S   4)   -179.98 -0.000022    0.03   -179.95   
    64. D(C   5,C   6,C   2,N   3)     -0.07  0.000005   -0.02     -0.09   
    65. D(C   5,C   6,C   2,C   1)    179.09  0.000011   -0.06    179.03   
    ----------------------------------------------------------------------------
                 *******************************************************
                 *** FINAL ENERGY EVALUATION AT THE STATIONARY POINT ***
                 ***               (AFTER    2 CYCLES)               ***
                 *******************************************************


           ************************************************************
           *        Program running with 8 parallel MPI-processes     *
           *              working on a common directory               *
           ************************************************************
           ************************************************************
           *              Shut down parallel processing               *
           ************************************************************


           ************************************************************
           *        Program running with 8 parallel MPI-processes     *
           *              working on a common directory               *
           ************************************************************
------------
SCF SETTINGS
------------
Hamiltonian:
 Density Functional     Method          .... DFT(GTOs)
 Exchange Functional    Exchange        .... PBE
   PBE kappa parameter  XKappa          ....  0.804000
 Correlation Functional Correlation     .... PBE
 LDA part of GGA corr.  LDAOpt          .... PW91-LDA
 Gradients option       PostSCFGGA      .... off
 Hybrid DFT is turned on
   Fraction HF Exchange ScalHFX         ....  0.250000
   Scaling of DF-GGA-X  ScalDFX         ....  0.750000
   Scaling of DF-GGA-C  ScalDFC         ....  1.000000
   Scaling of DF-LDA-C  ScalLDAC        ....  1.000000
   Perturbative correction              ....  0.000000
   NL short-range parameter             ....  6.900000


General Settings:
 Integral files         IntName         .... 7114_+
 Hartree-Fock type      HFTyp           .... RHF
 Total Charge           Charge          ....    1
 Multiplicity           Mult            ....    1
 Number of Electrons    NEL             ....   60
 Basis Dimension        Dim             ....  265
 Nuclear Repulsion      ENuc            ....    367.8877667891 Eh

Convergence Acceleration:
 DIIS                   CNVDIIS         .... on
   Start iteration      DIISMaxIt       ....    12
   Startup error        DIISStart       ....  0.200000
   # of expansion vecs  DIISMaxEq       ....     5
   Bias factor          DIISBfac        ....   1.050
   Max. coefficient     DIISMaxC        ....  10.000
 Newton-Raphson         CNVNR           .... off
 SOSCF                  CNVSOSCF        .... on
   Start iteration      SOSCFMaxIt      ....   150
   Startup grad/error   SOSCFStart      ....  0.003300
 Level Shifting         CNVShift        .... on
   Level shift para.    LevelShift      ....    0.2500
   Turn off err/grad.   ShiftErr        ....    0.0010
 Zerner damping         CNVZerner       .... off
 Static damping         CNVDamp         .... on
   Fraction old density DampFac         ....    0.7000
   Max. Damping (<1)    DampMax         ....    0.9800
   Min. Damping (>=0)   DampMin         ....    0.0000
   Turn off err/grad.   DampErr         ....    0.1000
 Fernandez-Rico         CNVRico         .... off

SCF Procedure:
 Maximum # iterations   MaxIter         ....   125
 SCF integral mode      SCFMode         .... Direct
   Integral package                     .... LIBINT
 Reset frequeny         DirectResetFreq ....    20
 Integral Threshold     Thresh          ....  2.500e-11 Eh
 Primitive CutOff       TCut            ....  2.500e-12 Eh

Convergence Tolerance:
 Convergence Check Mode ConvCheckMode   .... Total+1el-Energy
 Energy Change          TolE            ....  1.000e-08 Eh
 1-El. energy change                    ....  1.000e-05 Eh
 Orbital Gradient       TolG            ....  1.000e-05
 Orbital Rotation angle TolX            ....  1.000e-05
 DIIS Error             TolErr          ....  5.000e-07


Diagonalization of the overlap matrix:
Smallest eigenvalue                        ... 1.183e-04
Time for diagonalization                   ...    0.085 sec
Threshold for overlap eigenvalues          ... 1.000e-08
Number of eigenvalues below threshold      ... 0
Time for construction of square roots      ...    0.020 sec
Total time needed                          ...    0.106 sec

-------------------
DFT GRID GENERATION
-------------------

General Integration Accuracy     IntAcc      ...  4.340
Radial Grid Type                 RadialGrid  ... Gauss-Chebyshev
Angular Grid (max. acc.)         AngularGrid ... Lebedev-194
Angular grid pruning method      GridPruning ... 3 (G Style)
Weight generation scheme         WeightScheme... Becke
Basis function cutoff            BFCut       ...    1.0000e-11
Integration weight cutoff        WCut        ...    1.0000e-14
Grids for H and He will be reduced by one unit

# of grid points (after initial pruning)     ...  34070 (   0.0 sec)
# of grid points (after weights+screening)   ...  31654 (   0.0 sec)
nearest neighbour list constructed           ...    0.0 sec
Grid point re-assignment to atoms done       ...    0.0 sec
Grid point division into batches done        ...    0.1 sec
Reduced shell lists constructed in    0.1 sec

Total number of grid points                  ...    31654
Total number of batches                      ...      500
Average number of points per batch           ...       63
Average number of grid points per atom       ...     2261
Average number of shells per batch           ...    83.31 (77.86%)
Average number of basis functions per batch  ...   215.59 (81.36%)
Average number of large shells per batch     ...    69.69 (83.65%)
Average number of large basis fcns per batch ...   177.00 (82.10%)
Maximum spatial batch extension              ...   2.84,  5.52,  2.40 au
Average spatial batch extension              ...   0.15,  0.16,  0.15 au

Time for grid setup =    0.195 sec

--------------
SCF ITERATIONS
--------------
ITER       Energy         Delta-E        Max-DP      RMS-DP      [F,P]     Damp
               ***  Starting incremental Fock matrix formation  ***
                      *** Initiating the SOSCF procedure ***
                      *** Re-Reading the Fockian *** 
                      *** Removing any level shift *** 
ITER      Energy       Delta-E        Grad      Rot      Max-DP    RMS-DP
  0   -663.75322494 -663.7532249380  0.000198  0.000198  0.000289  0.000007
               *** Restarting incremental Fock matrix formation ***
  1   -663.75322644  -0.0000015002  0.000041  0.000105  0.000125  0.000003
  2   -663.75322662  -0.0000001796  0.000016  0.000065  0.000037  0.000001
  3   -663.75322661   0.0000000094  0.000039  0.000052  0.000029  0.000001
  4   -663.75322663  -0.0000000174  0.000005  0.000010  0.000010  0.000000
  5   -663.75322663   0.0000000001  0.000003  0.000004  0.000007  0.000000
                  ***Gradient check signals convergence***
              ***Rediagonalizing the Fockian in SOSCF/NRSCF***

               *****************************************************
               *                     SUCCESS                       *
               *           SCF CONVERGED AFTER   6 CYCLES          *
               *****************************************************

Setting up the final grid:

General Integration Accuracy     IntAcc      ...  5.010
Radial Grid Type                 RadialGrid  ... Gauss-Chebyshev
Angular Grid (max. acc.)         AngularGrid ... Lebedev-434
Angular grid pruning method      GridPruning ... 3 (G Style)
Weight generation scheme         WeightScheme... Becke
Basis function cutoff            BFCut       ...    1.0000e-11
Integration weight cutoff        WCut        ...    1.0000e-14
Grids for H and He will be reduced by one unit

# of grid points (after initial pruning)     ... 122556 (   0.0 sec)
# of grid points (after weights+screening)   ... 112739 (   0.1 sec)
nearest neighbour list constructed           ...    0.0 sec
Grid point re-assignment to atoms done       ...    0.0 sec
Grid point division into batches done        ...    0.9 sec
Reduced shell lists constructed in    1.2 sec

Total number of grid points                  ...   112739
Total number of batches                      ...     1769
Average number of points per batch           ...       63
Average number of grid points per atom       ...     8053
Average number of shells per batch           ...    82.93 (77.51%)
Average number of basis functions per batch  ...   214.30 (80.87%)
Average number of large shells per batch     ...    69.07 (83.28%)
Average number of large basis fcns per batch ...   175.76 (82.02%)
Maximum spatial batch extension              ...   2.49,  7.27,  3.25 au
Average spatial batch extension              ...   0.10,  0.11,  0.10 au

Final grid set up in    1.3 sec
Final integration                            ... done (   0.7 sec)
Change in XC energy                          ...     0.000255495
Integrated number of electrons               ...    59.999994630
Previous integrated no of electrons          ...    59.999367557
Total Energy       :         -663.75297113 Eh          -18061.63658 eV
  Last Energy change         ...   -2.7285e-10  Tolerance :   1.0000e-08
  Last MAX-Density change    ...    2.7580e-06  Tolerance :   1.0000e-07
             **** THE GBW FILE WAS UPDATED (7114_+.gbw) ****
             **** DENSITY FILE WAS UPDATED (7114_+.scfp.tmp) ****
             **** ENERGY FILE WAS UPDATED (7114_+.en.tmp) ****
Total SCF time: 0 days 0 hours 0 min 35 sec 
           ************************************************************
           *              Shut down parallel processing               *
           ************************************************************

-------------------------   --------------------
FINAL SINGLE POINT ENERGY      -663.752971130590
-------------------------   --------------------

                                *** OPTIMIZATION RUN DONE ***

                            ***************************************
                            *     ORCA property calculations      *
                            ***************************************

                                    ---------------------
                                    Active property flags
                                    ---------------------




           ************************************************************
           *        Program running with 8 parallel MPI-processes     *
           *              working on a common directory               *
           ************************************************************

-------------------------------------------------------------------------------
                               ORCA SCF HESSIAN
-------------------------------------------------------------------------------

Hessian of the Kohn-Sham DFT energy:
Kohn-Sham wavefunction type                      ... RKS
Hartree-Fock exchange scaling                    ...    0.250
Number of operators                              ...    1
Number of atoms                                  ...   14
Basis set dimensions                             ...  265
Integral neglect threshold                       ... 2.5e-11
Integral primitive cutoff                        ... 2.5e-12

Setting up DFT Hessian calculations              ... 
Electron density on the grid                     ... found on disk
Electron density on the final grid               ... found on disk
Building xc-kernel on the grid                   ... done   (      0.0 sec)
Building xc-kernel on the final grid             ... done   (      0.0 sec)
                                                     done   (      0.2 sec)

Nuclear repulsion Hessian                        ... done   (      0.0 sec)

----------------------------------------------
Forming right-hand sides of CP-SCF equations     ...
----------------------------------------------
One electron integral derivatives                ... done   (      0.3 sec)
Transforming the overlap derivative matrices     ... done   (      0.1 sec)
Making the Q(x) pseudodensities                  ... done   (      0.1 sec)
Adding the E*S(x)*S(y) terms to the Hessian      ... done   (      0.0 sec)
Calculating energy weighted overlap derivatives  ... done   (      0.0 sec)
Two electron integral derivatives                ... done   (     39.7 sec)
Exchange-correlation integral derivatives        ... done   (     40.1 sec)
tr(F(y)Q(x)) contribution to the Hessian         ... done   (      0.0 sec)
Response fock operator R(S(x))                   ... done   (    127.5 sec)
XC Response fock operator R(S(x))                ... done   (     17.5 sec)
tr(F(y)S(x)) contribution to the Hessian         ... done   (      0.0 sec)
Transforming and finalizing RHSs                 ... done   (      0.1 sec)

----------------------------------------------
Solving the CP-SCF equations                     ...
----------------------------------------------
     CP-SCF ITERATION   0: 
     CP-SCF ITERATION   1:      0.001268991
     CP-SCF ITERATION   2:      0.000113631
     CP-SCF ITERATION   3:      0.000007328
     CP-SCF ITERATION   4:      0.000001742
     CP-SCF ITERATION   5:      0.000000144
     CP-SCF ITERATION   6:      0.000000011
     CP-SCF ITERATION   7:      0.000000010

                                                 ... done   (   1091.3 sec)
Forming perturbed density Hessian contributions  ... done   (      0.0 sec)
Making the perturbed densities                   ... done   (      0.1 sec)
2nd integral derivative contribs                 ... done   (    245.4 sec)
Exchange-correlation Hessian                     ... done   (     21.2 sec)
Dipol derivatives                                ... done   (      1.9 sec)

Total SCF Hessian time: 0 days 0 hours 26 min 26 sec 

Writing the Hessian file to the disk             ... done

           ************************************************************
           *              Shut down parallel processing               *
           ************************************************************

-----------------------
VIBRATIONAL FREQUENCIES
-----------------------

   0:         0.00 cm**-1
   1:         0.00 cm**-1
   2:         0.00 cm**-1
   3:         0.00 cm**-1
   4:         0.00 cm**-1
   5:         0.00 cm**-1
   6:        31.68 cm**-1
   7:       210.65 cm**-1
   8:       237.92 cm**-1
   9:       252.82 cm**-1
  10:       473.04 cm**-1
  11:       491.48 cm**-1
  12:       609.60 cm**-1
  13:       641.12 cm**-1
  14:       706.15 cm**-1
  15:       782.12 cm**-1
  16:       875.61 cm**-1
  17:       912.52 cm**-1
  18:       929.48 cm**-1
  19:       931.22 cm**-1
  20:       981.10 cm**-1
  21:      1005.87 cm**-1
  22:      1100.71 cm**-1
  23:      1108.24 cm**-1
  24:      1116.23 cm**-1
  25:      1238.53 cm**-1
  26:      1310.03 cm**-1
  27:      1360.03 cm**-1
  28:      1395.70 cm**-1
  29:      1459.17 cm**-1
  30:      1485.52 cm**-1
  31:      1514.77 cm**-1
  32:      1560.78 cm**-1
  33:      1637.60 cm**-1
  34:      1655.16 cm**-1
  35:      2943.32 cm**-1
  36:      3105.49 cm**-1
  37:      3156.42 cm**-1
  38:      3245.80 cm**-1
  39:      3262.47 cm**-1
  40:      3492.78 cm**-1
  41:      3553.66 cm**-1


------------
NORMAL MODES
------------

These modes are the cartesian displacements weighted by the diagonal matrix
M(i,i)=1/sqrt(m[i]) where m[i] is the mass of the displaced atom
Thus, these vectors are normalized but *not* orthogonal

                  0          1          2          3          4          5    
      0       0.000000   0.000000   0.000000   0.000000   0.000000   0.000000
      1       0.000000   0.000000   0.000000   0.000000   0.000000   0.000000
      2       0.000000   0.000000   0.000000   0.000000   0.000000   0.000000
      3       0.000000   0.000000   0.000000   0.000000   0.000000   0.000000
      4       0.000000   0.000000   0.000000   0.000000   0.000000   0.000000
      5       0.000000   0.000000   0.000000   0.000000   0.000000   0.000000
      6       0.000000   0.000000   0.000000   0.000000   0.000000   0.000000
      7       0.000000   0.000000   0.000000   0.000000   0.000000   0.000000
      8       0.000000   0.000000   0.000000   0.000000   0.000000   0.000000
      9       0.000000   0.000000   0.000000   0.000000   0.000000   0.000000
     10       0.000000   0.000000   0.000000   0.000000   0.000000   0.000000
     11       0.000000   0.000000   0.000000   0.000000   0.000000   0.000000
     12       0.000000   0.000000   0.000000   0.000000   0.000000   0.000000
     13       0.000000   0.000000   0.000000   0.000000   0.000000   0.000000
     14       0.000000   0.000000   0.000000   0.000000   0.000000   0.000000
     15       0.000000   0.000000   0.000000   0.000000   0.000000   0.000000
     16       0.000000   0.000000   0.000000   0.000000   0.000000   0.000000
     17       0.000000   0.000000   0.000000   0.000000   0.000000   0.000000
     18       0.000000   0.000000   0.000000   0.000000   0.000000   0.000000
     19       0.000000   0.000000   0.000000   0.000000   0.000000   0.000000
     20       0.000000   0.000000   0.000000   0.000000   0.000000   0.000000
     21       0.000000   0.000000   0.000000   0.000000   0.000000   0.000000
     22       0.000000   0.000000   0.000000   0.000000   0.000000   0.000000
     23       0.000000   0.000000   0.000000   0.000000   0.000000   0.000000
     24       0.000000   0.000000   0.000000   0.000000   0.000000   0.000000
     25       0.000000   0.000000   0.000000   0.000000   0.000000   0.000000
     26       0.000000   0.000000   0.000000   0.000000   0.000000   0.000000
     27       0.000000   0.000000   0.000000   0.000000   0.000000   0.000000
     28       0.000000   0.000000   0.000000   0.000000   0.000000   0.000000
     29       0.000000   0.000000   0.000000   0.000000   0.000000   0.000000
     30       0.000000   0.000000   0.000000   0.000000   0.000000   0.000000
     31       0.000000   0.000000   0.000000   0.000000   0.000000   0.000000
     32       0.000000   0.000000   0.000000   0.000000   0.000000   0.000000
     33       0.000000   0.000000   0.000000   0.000000   0.000000   0.000000
     34       0.000000   0.000000   0.000000   0.000000   0.000000   0.000000
     35       0.000000   0.000000   0.000000   0.000000   0.000000   0.000000
     36       0.000000   0.000000   0.000000   0.000000   0.000000   0.000000
     37       0.000000   0.000000   0.000000   0.000000   0.000000   0.000000
     38       0.000000   0.000000   0.000000   0.000000   0.000000   0.000000
     39       0.000000   0.000000   0.000000   0.000000   0.000000   0.000000
     40       0.000000   0.000000   0.000000   0.000000   0.000000   0.000000
     41       0.000000   0.000000   0.000000   0.000000   0.000000   0.000000
                  6          7          8          9         10         11    
      0      -0.007972  -0.002242   0.000040   0.006850   0.256849   0.006240
      1       0.137658  -0.108635  -0.029352  -0.021422   0.001280  -0.005161
      2      -0.009809  -0.047341   0.002298   0.288534  -0.183559  -0.004915
      3       0.003531  -0.003357  -0.002715   0.024880   0.166373   0.005489
      4      -0.157691  -0.042701   0.102242  -0.024687   0.000140  -0.006799
      5       0.007905   0.013221  -0.004576  -0.041465  -0.065270  -0.006980
      6       0.004723   0.026666   0.000684  -0.142491  -0.130479  -0.005492
      7      -0.036835   0.172425  -0.094127   0.042597   0.007144  -0.070758
      8       0.002702   0.013064   0.002359  -0.091184  -0.042576  -0.001923
      9       0.000423   0.020236   0.000406  -0.088772  -0.148922   0.006950
     10      -0.098474   0.184933  -0.082953   0.044233  -0.016097   0.297896
     11       0.006221   0.020317   0.003082  -0.139775  -0.042005  -0.003389
     12      -0.004101  -0.016868   0.000633   0.100316  -0.007784  -0.006611
     13      -0.021020  -0.028773   0.059962  -0.007445   0.005782  -0.157815
     14       0.001208   0.012337   0.000370  -0.093472   0.031596   0.004646
     15       0.002566  -0.012467   0.000046   0.041293  -0.058033   0.013119
     16       0.098206  -0.115726   0.020806  -0.023709  -0.000742   0.372146
     17      -0.003743  -0.006870  -0.002063   0.056181   0.172236   0.002599
     18       0.007627   0.014655  -0.000433  -0.103225  -0.162313  -0.013533
     19       0.080521   0.043653  -0.085904   0.016161   0.000708  -0.237576
     20      -0.003826  -0.006126  -0.000847   0.043757   0.149554   0.005727
     21       0.155545  -0.027047  -0.038304   0.142283   0.176793   0.017198
     22       0.411627   0.160301   0.230298   0.077303  -0.008131   0.037462
     23      -0.278297  -0.480249  -0.428329   0.267963  -0.249812  -0.059451
     24       0.038740   0.079831   0.023306  -0.302452   0.363154   0.011563
     25      -0.108954  -0.520505  -0.496090  -0.150959  -0.017323  -0.034935
     26      -0.042799  -0.106506  -0.041588   0.379513  -0.243475  -0.009288
     27      -0.223681  -0.037771   0.024675   0.065166   0.224954  -0.009639
     28       0.344015   0.080568   0.148645   0.050843   0.000320   0.025391
     29       0.277330   0.392002   0.482701   0.543963  -0.229894   0.054988
     30      -0.171733   0.009068   0.067383   0.128581   0.226707   0.023811
     31      -0.345411  -0.160824   0.258001  -0.069057  -0.031002   0.040488
     32      -0.147059  -0.158999   0.169117  -0.164516  -0.143368   0.046586
     33       0.200262  -0.037867  -0.075294   0.125393   0.238736  -0.008484
     34      -0.314691  -0.143900   0.230361  -0.066611  -0.011273   0.033203
     35       0.181893   0.217851  -0.199220  -0.021889  -0.084302  -0.071784
     36       0.003304  -0.027831   0.000705   0.105538  -0.013473   0.024574
     37       0.179679  -0.265895   0.081884  -0.057855  -0.000464   0.654734
     38      -0.007671  -0.018536  -0.004870   0.144013   0.234318   0.001181
     39       0.013095   0.024266   0.000001  -0.177383  -0.271167  -0.027075
     40       0.146047   0.018229  -0.120664   0.012665   0.003475  -0.484085
     41      -0.008173  -0.020769  -0.003241   0.146533   0.296731   0.012248
                 12         13         14         15         16         17    
      0      -0.059604  -0.014840   0.039824   0.002133  -0.001568  -0.006376
      1      -0.002641  -0.001909   0.002816  -0.001281  -0.002696   0.021981
      2      -0.007664   0.001005  -0.022789  -0.000059   0.001021  -0.001695
      3      -0.005838  -0.002654   0.018679  -0.000226  -0.010227   0.002203
      4      -0.027380   0.079159   0.004758  -0.023487  -0.012911   0.098513
      5      -0.366581  -0.022805   0.283660   0.002806  -0.087728  -0.000685
      6       0.013176   0.008979  -0.136520  -0.001732   0.059913  -0.003835
      7      -0.056438   0.319516  -0.034830  -0.021948   0.015687  -0.102460
      8      -0.174340  -0.021109   0.044667   0.001826   0.047470   0.001414
[...]
     27       0.187113   0.217204  -0.363286   0.215819   0.017137   0.459488
     28      -0.029736  -0.080152  -0.014812   0.017693  -0.009342  -0.114495
     29       0.056565   0.010474  -0.210193   0.017627   0.007519   0.029858
     30      -0.124069  -0.137317   0.219428  -0.346841   0.010556  -0.211467
     31      -0.056806  -0.115739   0.011446   0.030170  -0.004638   0.078788
     32      -0.052717  -0.136341   0.174181   0.150008  -0.037873   0.411596
     33       0.050968   0.192192   0.107019  -0.305889   0.031152   0.241592
     34      -0.052614  -0.081356   0.064159  -0.046711  -0.000647   0.046060
     35       0.090733   0.137219   0.098809   0.135075  -0.048370  -0.457808
     36       0.115542  -0.032006  -0.356449  -0.349954  -0.321472   0.019546
     37       0.519522   0.534485   0.012908   0.007671   0.009634  -0.002137
     38       0.178722  -0.082860  -0.361005  -0.494878  -0.537467   0.034335
     39      -0.195444   0.052792   0.057718   0.156059  -0.459591   0.002005
     40      -0.582297  -0.634314   0.002544  -0.001850   0.022437   0.029202
     41      -0.020225   0.005922   0.213430   0.120458   0.609296  -0.009736
                 24         25         26         27         28         29    
      0      -0.022329  -0.016411   0.005686   0.027818  -0.015473  -0.094556
      1      -0.004585   0.006354  -0.087207   0.010747  -0.000530  -0.000495
      2      -0.127510  -0.026522   0.012152   0.049182  -0.040396   0.001750
      3       0.078657   0.007418   0.003454   0.086449  -0.041579  -0.034693
      4      -0.002683  -0.010185   0.067010  -0.009986   0.006136   0.003585
      5       0.070376  -0.006904  -0.011394  -0.116971   0.147912  -0.016358
      6       0.009997  -0.146717  -0.004975   0.027031  -0.093767   0.123839
      7       0.006737   0.008766   0.028064  -0.004809  -0.002047  -0.005794
      8       0.025529   0.123569   0.003358   0.004096  -0.362580  -0.017726
      9      -0.028397   0.031335   0.002013  -0.001926   0.164189  -0.040673
     10       0.000072  -0.001454  -0.002070   0.000427  -0.004938   0.001485
     11      -0.034659  -0.014246  -0.000226   0.007065   0.164627  -0.036244
     12      -0.004030  -0.012053  -0.001159  -0.005668   0.001192  -0.004257
     13       0.000062   0.000438  -0.000472   0.000225  -0.000113   0.000186
     14      -0.005531  -0.008970  -0.000694  -0.008410   0.003235   0.000533
     15       0.002334   0.110748   0.010780   0.059392   0.036174   0.035949
     16       0.000321  -0.004344   0.000331  -0.002017   0.001097  -0.001319
     17      -0.005009   0.027145   0.007645   0.059504   0.398659   0.016848
     18       0.008896  -0.009460  -0.009399  -0.085100  -0.039362  -0.083307
     19      -0.002023   0.000443  -0.004679   0.004178  -0.000352   0.003582
     20       0.018304   0.041724   0.002704   0.011153  -0.322094   0.034017
     21       0.380817   0.016892   0.213304  -0.185065   0.147319   0.360153
     22      -0.052309  -0.014244   0.075540   0.029070  -0.049466   0.057968
     23       0.316343   0.037534  -0.049088  -0.175560   0.180583   0.302837
     24      -0.615941  -0.039731   0.036029  -0.031175   0.027462   0.643779
     25      -0.006952  -0.010098   0.122638  -0.020332   0.007623  -0.007439
     26       0.074642  -0.026941   0.020877   0.082001  -0.061701  -0.243033
     27       0.244787   0.047261  -0.314123  -0.069318   0.094391   0.319853
     28       0.062557   0.001382   0.020942  -0.026304   0.036591  -0.082853
     29       0.341832   0.034644  -0.058811  -0.158544   0.172786   0.214889
     30      -0.198918   0.306254  -0.607536  -0.395067   0.014077   0.075347
     31       0.007080  -0.024016  -0.037785   0.112689  -0.093105   0.128629
     32       0.262989  -0.205300   0.195548   0.349376  -0.027835   0.098585
     33      -0.107613   0.206683   0.603275  -0.485733  -0.013159   0.112856
     34       0.017318   0.036829  -0.017339  -0.104547   0.094777  -0.114980
     35       0.154939  -0.208825  -0.185465   0.392917  -0.039530   0.126557
     36      -0.048374  -0.284622  -0.027572  -0.162651  -0.508728  -0.036015
     37       0.002267   0.008120   0.008834   0.003926   0.018478   0.000796
     38      -0.073881  -0.514255  -0.044494  -0.235903  -0.249203  -0.083664
     39      -0.011904   0.376168   0.028194   0.103610  -0.215103   0.040628
     40       0.002761  -0.016605   0.001707  -0.006388   0.007082  -0.002442
     41       0.051342  -0.475809  -0.049763  -0.265343  -0.158697  -0.153758
                 30         31         32         33         34         35    
      0      -0.015695  -0.048372  -0.016990   0.035373   0.017782   0.017937
      1      -0.002554   0.000982  -0.001624   0.031304  -0.039119  -0.005734
      2      -0.004873   0.019222  -0.020590  -0.025363  -0.024245   0.066189
      3      -0.022527   0.090073   0.020581   0.003560   0.001882   0.005103
      4      -0.006028   0.002518   0.000217   0.008210  -0.009175   0.000333
      5      -0.078169  -0.041609   0.032846  -0.022162  -0.016325  -0.000896
      6      -0.107249  -0.162305  -0.228678  -0.005509  -0.001681  -0.000273
      7       0.004406   0.007615   0.004326  -0.001121   0.002697  -0.000060
      8       0.049701   0.073413  -0.350959   0.008813   0.007966  -0.001615
      9       0.022274   0.029274   0.149272  -0.000770  -0.001842   0.001522
     10      -0.000704  -0.001176  -0.004575   0.002705  -0.004328  -0.000132
     11      -0.002159  -0.009688   0.193722  -0.004699  -0.003024  -0.003145
     12       0.003221   0.004055   0.009040   0.000181   0.000103   0.000051
     13      -0.000108  -0.000130  -0.000352   0.000270  -0.000443  -0.000016
     14       0.002417   0.004458   0.008600   0.000607   0.000077   0.001015
     15      -0.027432  -0.032049  -0.028064   0.000260   0.000270   0.000128
     16       0.001089   0.001208  -0.000150   0.000192  -0.000330  -0.000009
     17       0.016950  -0.009352  -0.259941  -0.000265   0.000603  -0.000121
     18       0.085669   0.109970  -0.022253   0.004342   0.002105   0.001103
     19      -0.003946  -0.004768   0.002714  -0.000562   0.000280  -0.000035
     20      -0.073431  -0.059766   0.313639  -0.003528  -0.003060   0.000468
     21       0.054506   0.217465   0.104314  -0.187852  -0.350663  -0.025678
     22       0.053868   0.059346  -0.011066  -0.431431  -0.189012   0.044947
     23      -0.028169   0.145946   0.094316   0.492262  -0.093579   0.012898
     24       0.009854   0.505142   0.151372   0.150930   0.142549  -0.311287
     25       0.009705  -0.016901   0.017082  -0.415213   0.663969   0.081457
     26      -0.014771  -0.147195  -0.061858  -0.116212  -0.008860  -0.940666
     27       0.055473   0.207831   0.085919  -0.466071  -0.016170  -0.015292
     28      -0.044558  -0.068250   0.004352   0.284547   0.210961  -0.043462
     29      -0.033337   0.086594   0.094695   0.136473   0.566772   0.010900
     30       0.286860  -0.440557  -0.055375  -0.035504   0.002518   0.000050
     31       0.454043  -0.239761   0.141326   0.035028   0.019346  -0.024193
     32       0.412637  -0.079382   0.279008   0.036363   0.023118   0.021130
     33       0.327446  -0.422099  -0.038359   0.018998  -0.031114  -0.002685
     34      -0.376730   0.192883  -0.109883  -0.030230  -0.016635   0.020876
     35       0.448412  -0.115810   0.274178   0.044498   0.012774   0.014363
     36       0.008929   0.047531   0.266602   0.003126   0.000573   0.007201
     37       0.000234  -0.001220  -0.010192  -0.003990   0.006548  -0.000141
     38       0.076679   0.101945   0.062923   0.003734   0.000813  -0.000440
     39      -0.084518  -0.046671   0.439014  -0.001827  -0.003159   0.003466
     40       0.005500   0.002395  -0.018954   0.000070   0.000457  -0.000174
     41       0.171628   0.178253  -0.271930   0.005590   0.004294  -0.000730
                 36         37         38         39         40         41    
      0       0.000121  -0.000009   0.000019   0.000152  -0.039139   0.005997
      1       0.000587  -0.002342  -0.000008  -0.000017  -0.010119  -0.080730
      2      -0.001092  -0.000335  -0.000201   0.000247   0.043515  -0.010221
      3      -0.035347  -0.007675   0.000549   0.000287   0.000408  -0.000112
      4      -0.014345   0.094792  -0.000081  -0.000037  -0.000279  -0.001170
      5      -0.058131  -0.011851   0.000335   0.000020   0.000438  -0.000040
      6       0.000432  -0.000117  -0.002893  -0.002910   0.000418  -0.000124
      7      -0.000009   0.000258   0.000122   0.000120  -0.000008  -0.000070
      8      -0.000328   0.000152   0.001287   0.000921   0.000005   0.000018
      9       0.000203   0.000033  -0.000078  -0.001124   0.000203  -0.000004
     10       0.000023   0.000155  -0.000001   0.000045   0.000010   0.000003
     11       0.000890   0.000123  -0.000948   0.000469  -0.000475   0.000071
     12       0.000096   0.000006  -0.000012  -0.000606   0.000009   0.000002
     13      -0.000012   0.000031   0.000001   0.000021  -0.000002   0.000007
     14      -0.000012   0.000007   0.000053  -0.000372   0.000060  -0.000004
     15      -0.000149  -0.000013  -0.036974   0.059420   0.000168   0.000000
     16       0.000001  -0.000043   0.001634  -0.002664  -0.000012  -0.000005
     17      -0.000352  -0.000019   0.025918  -0.049743  -0.000036  -0.000016
     18      -0.000014   0.000115   0.061072   0.038333   0.000070  -0.000015
     19       0.000013  -0.000206  -0.002191  -0.001338  -0.000014  -0.000005
     20       0.000592   0.000088   0.041931   0.033091  -0.000160   0.000019
     21       0.000691  -0.000000   0.000377  -0.000093   0.284700  -0.324806
     22      -0.006418   0.007703  -0.000261   0.000621  -0.511124   0.554199
     23      -0.004489   0.006036  -0.000326   0.000270  -0.321679   0.370218
     24       0.015312   0.004370  -0.000291  -0.000646  -0.022372   0.002378
     25      -0.002461  -0.000432  -0.000127   0.000370   0.001321  -0.012966
     26       0.031060   0.007319   0.001932  -0.005344  -0.033358   0.003741
     27       0.000703  -0.000569   0.000296  -0.000102   0.259709   0.241803
     28       0.002483   0.014227   0.000445  -0.000756   0.649344   0.574647
     29      -0.000153  -0.006323  -0.000287   0.000196  -0.244753  -0.233338
     30       0.200833   0.251040  -0.001127  -0.000225   0.002057  -0.003553
     31      -0.495352  -0.594027   0.003616   0.001007   0.006237   0.008779
     32       0.333910   0.427897  -0.002863  -0.000937  -0.003007  -0.005873
     33       0.195869  -0.162847  -0.000530   0.000003   0.004452   0.003874
     34       0.664452  -0.528678  -0.002804  -0.000721  -0.001540   0.011818
     35       0.341743  -0.292214  -0.001739  -0.000560  -0.000869   0.006604
     36       0.001225   0.000314   0.426000  -0.673653  -0.000516  -0.000066
     37      -0.000070   0.000184  -0.018933   0.029981   0.000052  -0.000059
     38      -0.001269  -0.000272  -0.316643   0.507495   0.000658   0.000024
     39      -0.004203  -0.001200  -0.682718  -0.426056   0.000053   0.000029
     40       0.000125   0.000826   0.024296   0.015148  -0.000001   0.000030
     41      -0.003875  -0.001127  -0.493584  -0.312034   0.000086   0.000005


-----------
IR SPECTRUM
-----------

 Mode    freq (cm**-1)   T**2         TX         TY         TZ
-------------------------------------------------------------------
   7:       210.65   14.511076  (  0.625873  -3.297174  -1.802222)
   8:       237.92    4.738767  (  0.441241   2.059567  -0.549778)
   9:       252.82   57.465921  ( -1.819040  -0.527508   7.340214)
  10:       473.04   42.827814  (  5.314201  -0.006346  -3.819298)
  11:       491.48    2.819490  (  0.113291  -1.666089  -0.175511)
  12:       609.60   12.162277  ( -1.620642   0.082650   3.086902)
  13:       641.12    1.364300  ( -0.350046  -0.881881   0.681215)
  14:       706.15   10.130552  (  2.540606   0.115134  -1.913797)
  15:       782.12   51.953314  ( -0.191074  -7.203958  -0.140681)
  16:       875.61    9.694788  ( -0.569610   0.228920  -3.052528)
  17:       912.52    9.922138  ( -0.917705  -2.953138   0.599108)
  18:       929.48   42.148102  ( -5.854867  -0.481030   2.763557)
  19:       931.22   14.313581  (  3.090517  -1.761090  -1.288739)
  20:       981.10    5.169346  (  0.375932   0.298300  -2.222395)
  21:      1005.87    2.820212  ( -1.653161  -0.116696  -0.271394)
  22:      1100.71   12.767638  ( -2.186470   0.007462  -2.826116)
  23:      1108.24    3.399270  (  0.182591  -1.815902   0.261592)
  24:      1116.23  100.238497  ( -2.906335   0.002166   9.580799)
  25:      1238.53    0.887826  ( -0.190997  -0.102189   0.917008)
  26:      1310.03    4.153792  ( -0.329236   1.935692  -0.546346)
  27:      1360.03   14.425231  ( -0.951747  -0.057288  -3.676429)
  28:      1395.70    4.865677  ( -0.812910  -0.037411   2.050233)
  29:      1459.17  303.923947  ( 16.165146  -0.373799  -6.517076)
  30:      1485.52   33.046670  ( -0.522579   0.475868   5.705009)
  31:      1514.77   50.277880  (  6.572335  -0.118785  -2.658606)
  32:      1560.78   15.164249  (  1.908555  -0.004358  -3.394355)
  33:      1637.60   18.956498  ( -1.265342  -3.597514   2.100785)
  34:      1655.16   23.392533  ( -0.762548   3.887932   2.773993)
  35:      2943.32  454.781729  (  7.476888   0.615065 -19.962454)
  36:      3105.49    0.181010  ( -0.178965   0.038057   0.384101)
  37:      3156.42    0.668243  ( -0.040997  -0.801525   0.155304)
  38:      3245.80    3.530432  (  0.098822  -0.012050  -1.876305)
  39:      3262.47   13.117236  ( -3.344338   0.144601   1.382654)
  40:      3492.78  126.325006  (  7.676540   1.252474  -8.113387)
  41:      3553.66  107.269588  ( -0.866787  10.235474   1.324139)

The first frequency considered to be a vibration is 7
The total number of vibrations considered is 35


--------------------------
THERMOCHEMISTRY AT 298.15K
--------------------------

Temperature         ... 298.15 K
Pressure            ... 1.00 atm
Total Mass          ... 115.17 AMU

Throughout the following assumptions are being made:
  (1) The electronic state is orbitally nondegenerate
  (2) There are no thermally accessible electronically excited states
  (3) Hindered rotations indicated by low frequency modes) are not
      treated as such but are treated as vibrations and this may
      case some error
  (4) All equations used are the standard statistical mechanics
      equations for an ideal gas
  (5) All vibrations are strinctly harmonic


------------
INNER ENERGY
------------

The inner energy is: U= E(el) + E(ZPE) + E(vib) + E(rot) + E(trans)
    E(el)   - is the total energy from the electronic structure calculation
              = E(kin-el) + E(nuc-el) + E(el-el) + E(nuc-nuc)
    E(ZPE)  - the the zero temperature vibrational energy from the frequency calculation
    E(vib)  - the the finite temperature correction to E(ZPE) due to population
              of excietd vibrational states
    E(rot)  - is the rotational thermal energy
    E(trans)- is the translational thermal energy

Summary of contributions to the inner energy U:
Electronic energy                ...   -663.75297113 Eh
Zero point energy                ...      0.11560131 Eh      72.54 kcal/mol
Thermal vibrational correction   ...      0.00291451 Eh       1.83 kcal/mol
Thermal rotational correction    ...      0.00141627 Eh       0.89 kcal/mol
Thermal translational correction ...      0.00141627 Eh       0.89 kcal/mol
-----------------------------------------------------------------------
Total thermal energy                   -663.63162276 Eh


Summary of corrections to the electronic energy:
(perhaps to be used in another calculation)
Total thermal correction                  0.00574705 Eh       3.61 kcal/mol
Non-thermal (ZPE) correction              0.11560131 Eh      72.54 kcal/mol
-----------------------------------------------------------------------
Total correction                          0.12134837 Eh      76.15 kcal/mol


--------
ENTHALPY
--------

The enthalpy is H = U + kB*T
                kB is Boltzmann's constant
Total free energy                 ...   -663.63162276 Eh 
Thermal Enthalpy correction       ...      0.00094421 Eh       0.59 kcal/mol
-----------------------------------------------------------------------
Total Enthalpy                    ...   -663.63067856 Eh


-------
ENTROPY
-------

The entropy contributions are T*S = T*(S(el)+S(vib)+S(rot)+S(trans)
     S(el)   - electronic entropy
     S(vib)  - vibrational entropy
     S(rot)  - rotational entropy
     S(trans)- translational entropy
The entropies will be listed as mutliplied by the temperature to get
units of energy

Electronic entropy                ...      0.00000000 Eh      0.00 kcal/mol
Vibrational entropy               ...      0.00445802 Eh      2.80 kcal/mol
Rotational entropy                ...      0.01215904 Eh      7.63 kcal/mol
Translational entropy             ...      0.01907132 Eh     11.97 kcal/mol
-----------------------------------------------------------------------
Final entropy term                ...      0.03568839 Eh     22.39 kcal/mol


CAUTION: The rotational entropy is not quite correctly treated here
         because it includes a symmetry number that is not yet correctly
         implemented in ORCA!
For a nonlinear molecule the correct rotational entropy is:
    S(rot) = R*(ln(qrot/sn)+1.5)
    R    = 8.31441 J/mol/K = 1.987191683e-3 kcal/mol/K
    qrot = 262100.6462382
    sn is the rotational symmetry number. We have assumed 3 here
       if it is different for your molecule then you should correct
       the printed rotational entropy by manually evaluating the equation
       as given above

For convenience we print out the resulting values for sn=1 - 12:
 sn= 1  qrot/sn=  262100.6462 T*S(rot)=     8.28 kcal/mol T*S(tot)=    23.05 kcal/mol
 sn= 2  qrot/sn=  131050.3231 T*S(rot)=     7.87 kcal/mol T*S(tot)=    22.63 kcal/mol
 sn= 3  qrot/sn=   87366.8821 T*S(rot)=     7.63 kcal/mol T*S(tot)=    22.39 kcal/mol
 sn= 4  qrot/sn=   65525.1616 T*S(rot)=     7.46 kcal/mol T*S(tot)=    22.22 kcal/mol
 sn= 5  qrot/sn=   52420.1292 T*S(rot)=     7.33 kcal/mol T*S(tot)=    22.09 kcal/mol
 sn= 6  qrot/sn=   43683.4410 T*S(rot)=     7.22 kcal/mol T*S(tot)=    21.98 kcal/mol
 sn= 7  qrot/sn=   37442.9495 T*S(rot)=     7.13 kcal/mol T*S(tot)=    21.89 kcal/mol
 sn= 8  qrot/sn=   32762.5808 T*S(rot)=     7.05 kcal/mol T*S(tot)=    21.81 kcal/mol
 sn= 9  qrot/sn=   29122.2940 T*S(rot)=     6.98 kcal/mol T*S(tot)=    21.74 kcal/mol
 sn=10  qrot/sn=   26210.0646 T*S(rot)=     6.92 kcal/mol T*S(tot)=    21.68 kcal/mol
 sn=11  qrot/sn=   23827.3315 T*S(rot)=     6.86 kcal/mol T*S(tot)=    21.62 kcal/mol
 sn=12  qrot/sn=   21841.7205 T*S(rot)=     6.81 kcal/mol T*S(tot)=    21.57 kcal/mol


-------------------
GIBBS FREE ENTHALPY
-------------------

The Gibbs free enthalpy is G = H - T*S

Total enthalpy                    ...   -663.63067856 Eh 
Total entropy correction          ...     -0.03568839 Eh    -22.39 kcal/mol
-----------------------------------------------------------------------
Final Gibbs free enthalpy         ...   -663.66636694 Eh

For completeness - the Gibbs free enthalpy minus the electronic energy
G-E(el)                           ...      0.08660419 Eh     54.34 kcal/mol


Timings for individual modules:

Sum of individual times         ...     1809.383 sec (=  30.156 min)
GTO integral calculation        ...        6.426 sec (=   0.107 min)   0.4 %
SCF iterations                  ...      150.702 sec (=   2.512 min)   8.3 %
SCF Gradient evaluation         ...       64.641 sec (=   1.077 min)   3.6 %
Geometry relaxation             ...        0.123 sec (=   0.002 min)   0.0 %
Analytical frequency calculation...     1587.491 sec (=  26.458 min)  87.7 %
                             ****ORCA TERMINATED NORMALLY****
TOTAL RUN TIME: 0 days 0 hours 30 minutes 11 seconds 110 msec
