
                                 *****************
                                 * O   R   C   A *
                                 *****************

           --- An Ab Initio, DFT and Semiempirical electronic structure package ---

                  #######################################################
                  #                        -***-                        #
                  #  Department of molecular theory and spectroscopy    #
                  #              Directorship: Frank Neese              #
                  # Max Planck Institute for Chemical Energy Conversion #
                  #                  D-45470 Muelheim/Ruhr              #
                  #                       Germany                       #
                  #                                                     #
                  #                  All rights reserved                #
                  #                        -***-                        #
                  #######################################################


                         Program Version 3.0.3 - RELEASE   -


 With contributions from (in alphabetic order):
   Ute Becker             : Parallelization
   Dmytro Bykov           : SCF Hessian
   Dmitry Ganyushin       : Spin-Orbit,Spin-Spin,Magnetic field MRCI
   Andreas Hansen         : Spin unrestricted coupled pair/coupled cluster methods
   Dimitrios Liakos       : Extrapolation schemes; parallel MDCI
   Robert Izsak           : Overlap fitted RIJCOSX, COSX-SCS-MP3
   Christian Kollmar      : KDIIS, OOCD, Brueckner-CCSD(T), CCSD density
   Simone Kossmann        : Meta GGA functionals, TD-DFT gradient, OOMP2, MP2 Hessian
   Taras Petrenko         : DFT Hessian,TD-DFT gradient, ASA and ECA modules, normal mode analysis, Resonance Raman, ABS, FL, XAS/XES, NRVS
   Christoph Reimann      : Effective Core Potentials
   Michael Roemelt        : Restricted open shell CIS
   Christoph Riplinger    : Improved optimizer, TS searches, QM/MM, DLPNO-CCSD
   Barbara Sandhoefer     : DKH picture change effects
   Igor Schapiro          : Molecular dynamics
   Kantharuban Sivalingam : CASSCF convergence, NEVPT2
   Boris Wezisla          : Elementary symmetry handling
   Frank Wennmohs         : Technical directorship


 We gratefully acknowledge several colleagues who have allowed us to
 interface, adapt or use parts of their codes:
   Stefan Grimme, W. Hujo, H. Kruse, T. Risthaus : VdW corrections, initial TS optimization,
                                                   DFT functionals, gCP
   Ed Valeev                                     : LibInt (2-el integral package), F12 methods
   Garnet Chan, S. Sharma, R. Olivares           : DMRG
   Ulf Ekstrom                                   : XCFun DFT Library
   Mihaly Kallay                                 : mrcc  (arbitrary order and MRCC methods)
   Andreas Klamt, Michael Diedenhofen            : otool_cosmo (COSMO solvation model)
   Frank Weinhold                                : gennbo (NPA and NBO analysis)
   Christopher J. Cramer and Donald G. Truhlar   : smd solvation model


 Your calculation uses the libint2 library for the computation of 2-el integrals
 For citations please refer to: http://libint.valeyev.net

 This ORCA versions uses:
   CBLAS   interface :  Fast vector & matrix operations
   LAPACKE interface :  Fast linear algebra routines
   SCALAPACK package :  Parallel linear algebra routines


Your calculation utilizes the basis: Ahlrichs-TZV
Cite in your paper:
H - Kr: A. Schaefer, H. Horn and R. Ahlrichs, J. Chem. Phys. 97, 2571 (1992).

The def2-TZV basis will be loaded
Cite in your paper:
 	F. Weigend, R. Ahlrichs, Phys. Chem. Chem. Phys. 2005, 7, 3297.

================================================================================
                                        WARNINGS
                       Please study these warnings very carefully!
================================================================================
Now building the actual basis set
WARNING: Geometry optimizations can change the point-group symmetry!

WARNING: Geometry Optimization
  ===> : Switching off AutoStart
         For restart on a previous wavefunction, please use MOREAD


INFO   : the flag for use of LIBINT has been found!

================================================================================
                                       INPUT FILE
================================================================================
NAME = 0197_+.inp
|  1> ! NORI PBE0 def2-TZVP UseSym TightOPT Freq TightSCF Grid3 FinalGrid5 XYZFile
|  2> % pal
|  3>     nprocs 8
|  4> end
|  5> %method
|  6>     SymThresh 5.0e-2
|  7> end
|  8> % geom 
|  9>     MaxIter 10
| 10> end 
| 11> % maxcore 2000
| 12> % output
| 13>     printlevel mini
| 14>     print[ P_Basis ] 0
| 15>     print[ P_SCFInfo ] 1
| 16>     print[ P_SCFIterInfo ] 1
| 17>     print[ P_OrbEn ] 0
| 18>     print[ P_Cartesian ] 0
| 19> end
| 20> % elprop
| 21>     Dipole false
| 22> end
| 23> *xyz 1 1
| 24>  C        0.8175047079     0.0149948856     0.1274092663 
| 25>  N        2.3070439658    -0.0580032627     0.0565215345 
| 26>  C        2.8311076894    -1.3925173749    -0.3619470379 
| 27>  C        4.3473776398    -1.3940989211    -0.5207935418 
| 28>  O        4.9730823679    -2.3964267890    -0.4001918682 
| 29>  H        0.5282834814     1.0145125875     0.4472481598 
| 30>  H        0.4680947997    -0.7265772535     0.8428123470 
| 31>  H        0.4142150649    -0.1975100361    -0.8608073335 
| 32>  H        2.6455394650     0.6583309918    -0.5911476495 
| 33>  H        2.6968797075     0.1858019041     0.9705091618 
| 34>  H        2.5293062272    -2.1358125101     0.3757373260 
| 35>  H        2.3707618906    -1.6402403067    -1.3226450157 
| 36>  H        4.8224529929    -0.4224839148    -0.7807553488 
| 37> *
| 38> 
| 39>                          ****END OF INPUT****
================================================================================

The point group is C1 - hence turning off symmetry
If this is a round-off problem, please increase the symmetry
        detection tolerance (%method SymThresh)


                       *****************************
                       * Geometry Optimization Run *
                       *****************************

Geometry optimization settings:
Update method            Update   .... BFGS
Choice of coordinates    CoordSys .... Redundant Internals
Initial Hessian          InHess   .... Almoef's Model

Convergence Tolerances:
Energy Change            TolE     ....  1.0000e-06 Eh
Max. Gradient            TolMAXG  ....  1.0000e-04 Eh/bohr
RMS Gradient             TolRMSG  ....  3.0000e-05 Eh/bohr
Max. Displacement        TolMAXD  ....  1.0000e-03 bohr
RMS Displacement         TolRMSD  ....  6.0000e-04 bohr

------------------------------------------------------------------------------
                        ORCA OPTIMIZATION COORDINATE SETUP
------------------------------------------------------------------------------

The optimization will be done in new redundant internal coordinates
Making redundant internal coordinates   ...  (new redundants) done
Evaluating the initial hessian          ...  (Almloef) done
Evaluating the coordinates              ...  done
Calculating the B-matrix                .... done
Calculating the G-matrix                .... done
Diagonalizing the G-matrix              .... done
The first mode is                       ....   24
The number of degrees of freedom        ....   33

    -----------------------------------------------------------------
                    Redundant Internal Coordinates


    -----------------------------------------------------------------
         Definition                    Initial Value    Approx d2E/dq
    -----------------------------------------------------------------
      1. B(N   1,C   0)                  1.4930         0.383291   
      2. B(C   2,N   1)                  1.4935         0.382535   
      3. B(C   3,C   2)                  1.5246         0.381104   
      4. B(O   4,C   3)                  1.1877         1.176462   
      5. B(H   5,C   0)                  1.0886         0.361999   
      6. B(H   6,C   0)                  1.0880         0.362710   
      7. B(H   7,C   0)                  1.0883         0.362371   
      8. B(H   8,N   1)                  1.0233         0.412040   
      9. B(H   9,N   1)                  1.0231         0.412338   
     10. B(H  10,C   2)                  1.0898         0.360312   
     11. B(H  11,C   2)                  1.0937         0.355211   
     12. B(H  12,C   3)                  1.1123         0.331721   
     13. A(N   1,C   0,H   7)          108.4846         0.324077   
     14. A(N   1,C   0,H   6)          108.5593         0.324127   
     15. A(N   1,C   0,H   5)          108.8999         0.324022   
     16. A(H   5,C   0,H   6)          110.3224         0.291410   
     17. A(H   5,C   0,H   7)          110.3426         0.291367   
     18. A(H   6,C   0,H   7)          110.1797         0.291457   
     19. A(C   0,N   1,H   8)          109.0163         0.328192   
     20. A(C   0,N   1,H   9)          109.0306         0.328231   
     21. A(H   8,N   1,H   9)          105.8161         0.298597   
     22. A(C   2,N   1,H   8)          109.3947         0.328085   
     23. A(C   0,N   1,C   2)          114.0202         0.361888   
     24. A(C   2,N   1,H   9)          109.2397         0.328124   
     25. A(N   1,C   2,H  10)          108.8192         0.323669   
     26. A(N   1,C   2,C   3)          112.2776         0.363796   
     27. A(C   3,C   2,H  11)          109.0779         0.324654   
     28. A(N   1,C   2,H  11)          107.5055         0.322913   
     29. A(C   3,C   2,H  10)          110.1960         0.325416   
     30. A(H  10,C   2,H  11)          108.8758         0.290243   
     31. A(C   2,C   3,O   4)          120.9463         0.443357   
     32. A(O   4,C   3,H  12)          122.4027         0.386003   
     33. A(C   2,C   3,H  12)          116.6291         0.321033   
     34. D(H   9,N   1,C   0,H   5)     57.1109         0.013447   
     35. D(C   2,N   1,C   0,H   6)     59.3331         0.013447   
     36. D(H   8,N   1,C   0,H   5)    -57.9656         0.013447   
     37. D(H   9,N   1,C   0,H   6)    -63.0336         0.013447   
     38. D(C   2,N   1,C   0,H   5)    179.4776         0.013447   
     39. D(C   2,N   1,C   0,H   7)    -60.3976         0.013447   
     40. D(H   8,N   1,C   0,H   6)   -178.1101         0.013447   
     41. D(H   9,N   1,C   0,H   7)    177.2357         0.013447   
     42. D(H   8,N   1,C   0,H   7)     62.1592         0.013447   
     43. D(H  10,C   2,N   1,H   8)    175.6872         0.013396   
     44. D(H  10,C   2,N   1,C   0)    -61.9633         0.013396   
     45. D(C   3,C   2,N   1,H   9)    -61.9717         0.013396   
     46. D(C   3,C   2,N   1,H   8)     53.4268         0.013396   
     47. D(H  10,C   2,N   1,H   9)     60.2887         0.013396   
     48. D(C   3,C   2,N   1,C   0)    175.7763         0.013396   
     49. D(H  11,C   2,N   1,H   9)    178.0557         0.013396   
     50. D(H  11,C   2,N   1,H   8)    -66.5457         0.013396   
     51. D(H  11,C   2,N   1,C   0)     55.8038         0.013396   
     52. D(H  12,C   3,C   2,H  11)     91.7515         0.010834   
     53. D(H  12,C   3,C   2,H  10)   -148.7786         0.010834   
     54. D(H  12,C   3,C   2,N   1)    -27.3028         0.010834   
     55. D(O   4,C   3,C   2,H  11)    -86.5839         0.010834   
     56. D(O   4,C   3,C   2,H  10)     32.8860         0.010834   
     57. D(O   4,C   3,C   2,N   1)    154.3618         0.010834   
    -----------------------------------------------------------------

Number of atoms                         .... 13
Number of degrees of freedom            .... 57

         *************************************************************
         *                GEOMETRY OPTIMIZATION CYCLE   1            *
         *************************************************************


           ************************************************************
           *        Program running with 8 parallel MPI-processes     *
           *              working on a common directory               *
           ************************************************************
           ************************************************************
           *              Shut down parallel processing               *
           ************************************************************


           ************************************************************
           *        Program running with 8 parallel MPI-processes     *
           *              working on a common directory               *
           ************************************************************
------------
SCF SETTINGS
------------
Hamiltonian:
 Density Functional     Method          .... DFT(GTOs)
 Exchange Functional    Exchange        .... PBE
   PBE kappa parameter  XKappa          ....  0.804000
 Correlation Functional Correlation     .... PBE
 LDA part of GGA corr.  LDAOpt          .... PW91-LDA
 Gradients option       PostSCFGGA      .... off
 Hybrid DFT is turned on
   Fraction HF Exchange ScalHFX         ....  0.250000
   Scaling of DF-GGA-X  ScalDFX         ....  0.750000
   Scaling of DF-GGA-C  ScalDFC         ....  1.000000
   Scaling of DF-LDA-C  ScalLDAC        ....  1.000000
   Perturbative correction              ....  0.000000
   NL short-range parameter             ....  6.900000


General Settings:
 Integral files         IntName         .... 0197_+
 Hartree-Fock type      HFTyp           .... RHF
 Total Charge           Charge          ....    1
 Multiplicity           Mult            ....    1
 Number of Electrons    NEL             ....   40
 Basis Dimension        Dim             ....  203
 Nuclear Repulsion      ENuc            ....    181.1971542457 Eh

Convergence Acceleration:
 DIIS                   CNVDIIS         .... on
   Start iteration      DIISMaxIt       ....    12
   Startup error        DIISStart       ....  0.200000
   # of expansion vecs  DIISMaxEq       ....     5
   Bias factor          DIISBfac        ....   1.050
   Max. coefficient     DIISMaxC        ....  10.000
 Newton-Raphson         CNVNR           .... off
 SOSCF                  CNVSOSCF        .... on
   Start iteration      SOSCFMaxIt      ....   150
   Startup grad/error   SOSCFStart      ....  0.003300
 Level Shifting         CNVShift        .... on
   Level shift para.    LevelShift      ....    0.2500
   Turn off err/grad.   ShiftErr        ....    0.0010
 Zerner damping         CNVZerner       .... off
 Static damping         CNVDamp         .... on
   Fraction old density DampFac         ....    0.7000
   Max. Damping (<1)    DampMax         ....    0.9800
   Min. Damping (>=0)   DampMin         ....    0.0000
   Turn off err/grad.   DampErr         ....    0.1000
 Fernandez-Rico         CNVRico         .... off

SCF Procedure:
 Maximum # iterations   MaxIter         ....   125
 SCF integral mode      SCFMode         .... Direct
   Integral package                     .... LIBINT
 Reset frequeny         DirectResetFreq ....    20
 Integral Threshold     Thresh          ....  2.500e-11 Eh
 Primitive CutOff       TCut            ....  2.500e-12 Eh

Convergence Tolerance:
 Convergence Check Mode ConvCheckMode   .... Total+1el-Energy
 Energy Change          TolE            ....  1.000e-08 Eh
 1-El. energy change                    ....  1.000e-05 Eh
 Orbital Gradient       TolG            ....  1.000e-05
 Orbital Rotation angle TolX            ....  1.000e-05
 DIIS Error             TolErr          ....  5.000e-07


Diagonalization of the overlap matrix:
Smallest eigenvalue                        ... 4.715e-04
Time for diagonalization                   ...    0.011 sec
Threshold for overlap eigenvalues          ... 1.000e-08
Number of eigenvalues below threshold      ... 0
Time for construction of square roots      ...    0.004 sec
Total time needed                          ...    0.015 sec

-------------------
DFT GRID GENERATION
-------------------

General Integration Accuracy     IntAcc      ...  4.340
Radial Grid Type                 RadialGrid  ... Gauss-Chebyshev
Angular Grid (max. acc.)         AngularGrid ... Lebedev-194
Angular grid pruning method      GridPruning ... 3 (G Style)
Weight generation scheme         WeightScheme... Becke
Basis function cutoff            BFCut       ...    1.0000e-11
Integration weight cutoff        WCut        ...    1.0000e-14
Grids for H and He will be reduced by one unit

# of grid points (after initial pruning)     ...  28754 (   0.0 sec)
# of grid points (after weights+screening)   ...  26964 (   0.0 sec)
nearest neighbour list constructed           ...    0.0 sec
Grid point re-assignment to atoms done       ...    0.0 sec
Grid point division into batches done        ...    0.0 sec
Reduced shell lists constructed in    0.1 sec

Total number of grid points                  ...    26964
Total number of batches                      ...      427
Average number of points per batch           ...       63
Average number of grid points per atom       ...     2074
Average number of shells per batch           ...    71.89 (82.63%)
Average number of basis functions per batch  ...   168.15 (82.83%)
Average number of large shells per batch     ...    62.16 (86.47%)
Average number of large basis fcns per batch ...   146.13 (86.91%)
Maximum spatial batch extension              ...   2.25,  1.61,  2.00 au
Average spatial batch extension              ...   0.14,  0.13,  0.13 au

Time for grid setup =    0.125 sec

Loading Hartree-Fock densities                     ... done
Calculating cut-offs                               ... done
Setting up the integral package                    ... done
Initializing the effective Hamiltonian             ... done
Starting the Coulomb interaction                   ... done (   0.0 sec)
Reading the grid                                   ... done
Mapping shells                                     ... done
Starting the XC term evaluation                    ... done (   0.1 sec)
  promolecular density results
     # of electrons  =     40.997074978
     EX              =    -32.409621918
     EC              =     -1.343855983
     EX+EC           =    -33.753477901
Transforming the Hamiltonian                       ... done (   0.0 sec)
Diagonalizing the Hamiltonian                      ... done (   0.0 sec)
Back transforming the eigenvectors                 ... done (   0.0 sec)
Now organizing SCF variables                       ... done
--------------
SCF ITERATIONS
--------------
ITER       Energy         Delta-E        Max-DP      RMS-DP      [F,P]     Damp
               ***  Starting incremental Fock matrix formation  ***
  0   -248.5064740813   0.000000000000 0.11248578  0.00143872  0.2498634 0.7000
  1   -248.5690324757  -0.062558394396 0.09120689  0.00105799  0.0879420 0.7000
                               ***Turning on DIIS***
  2   -248.5900958231  -0.021063347453 0.09295177  0.00141531  0.0324945 0.0000
  3   -248.6310339075  -0.040938084356 0.09207908  0.00096199  0.0458428 0.0000
  4   -248.6361557371  -0.005121829666 0.02223717  0.00026134  0.0245335 0.0000
                      *** Initiating the SOSCF procedure ***
                           *** Shutting down DIIS ***
                      *** Re-Reading the Fockian *** 
                      *** Removing any level shift *** 
ITER      Energy       Delta-E        Grad      Rot      Max-DP    RMS-DP
  5   -248.63716219  -0.0010064570  0.000404  0.000404  0.006353  0.000074
               *** Restarting incremental Fock matrix formation ***
  6   -248.63718307  -0.0000208717  0.000578  0.001618  0.002074  0.000033
  7   -248.63717991   0.0000031586  0.001037  0.000898  0.001871  0.000022
  8   -248.63718591  -0.0000059980  0.000024  0.000045  0.000149  0.000003
                 **** Energy Check signals convergence ****
              ***Rediagonalizing the Fockian in SOSCF/NRSCF***

               *****************************************************
               *                     SUCCESS                       *
               *           SCF CONVERGED AFTER   9 CYCLES          *
               *****************************************************

Setting up the final grid:

General Integration Accuracy     IntAcc      ...  5.010
Radial Grid Type                 RadialGrid  ... Gauss-Chebyshev
Angular Grid (max. acc.)         AngularGrid ... Lebedev-434
Angular grid pruning method      GridPruning ... 3 (G Style)
Weight generation scheme         WeightScheme... Becke
Basis function cutoff            BFCut       ...    1.0000e-11
Integration weight cutoff        WCut        ...    1.0000e-14
Grids for H and He will be reduced by one unit

# of grid points (after initial pruning)     ... 107062 (   0.0 sec)
# of grid points (after weights+screening)   ...  99222 (   0.1 sec)
nearest neighbour list constructed           ...    0.0 sec
Grid point re-assignment to atoms done       ...    0.0 sec
Grid point division into batches done        ...    0.7 sec
Reduced shell lists constructed in    0.9 sec

Total number of grid points                  ...    99222
Total number of batches                      ...     1558
Average number of points per batch           ...       63
Average number of grid points per atom       ...     7632
Average number of shells per batch           ...    72.18 (82.97%)
Average number of basis functions per batch  ...   169.18 (83.34%)
Average number of large shells per batch     ...    62.02 (85.92%)
Average number of large basis fcns per batch ...   146.35 (86.50%)
Maximum spatial batch extension              ...   1.93,  1.61,  1.92 au
Average spatial batch extension              ...   0.09,  0.09,  0.09 au

Final grid set up in    0.9 sec
Final integration                            ... done (   0.3 sec)
Change in XC energy                          ...     0.000199955
Integrated number of electrons               ...    39.999985827
Previous integrated no of electrons          ...    39.999933509
Total Energy       :         -248.63698596 Eh           -6765.75635 eV
  Last Energy change         ...   -6.2155e-09  Tolerance :   1.0000e-08
  Last MAX-Density change    ...    4.1121e-05  Tolerance :   1.0000e-07
             **** THE GBW FILE WAS UPDATED (0197_+.gbw) ****
             **** DENSITY FILE WAS UPDATED (0197_+.scfp.tmp) ****
             **** ENERGY FILE WAS UPDATED (0197_+.en.tmp) ****
Total SCF time: 0 days 0 hours 0 min 20 sec 
           ************************************************************
           *              Shut down parallel processing               *
           ************************************************************

-------------------------   --------------------
FINAL SINGLE POINT ENERGY      -248.636985956476
-------------------------   --------------------



           ************************************************************
           *        Program running with 8 parallel MPI-processes     *
           *              working on a common directory               *
           ************************************************************
------------------------------------------------------------------------------
                         ORCA SCF GRADIENT CALCULATION
------------------------------------------------------------------------------

Gradient of the Kohn-Sham DFT energy:
Kohn-Sham wavefunction type      ... RKS
Hartree-Fock exchange scaling    ...    0.250
Number of operators              ...    1
Number of atoms                  ...   13
Basis set dimensions             ...  203
Integral neglect threshold       ... 2.5e-11
Integral primitive cutoff        ... 2.5e-12

Nuclear repulsion gradient       ... done
One Electron Gradient            ... done
Pre-screening matrix             ... done
Starting the two electron gradient:
Two electron gradient done
Exchange-correlation gradient    ... done

------------------
CARTESIAN GRADIENT
------------------

   1   C   :    0.000208286    0.000023136    0.000118656
   2   N   :   -0.000222315    0.000213406   -0.000221859
   3   C   :    0.000052889    0.000119423    0.000094540
   4   C   :    0.000166071   -0.000587315   -0.000127151
   5   O   :    0.000027452    0.000207616    0.000109960
   6   H   :   -0.000025424   -0.000010829    0.000018655
   7   H   :    0.000011735   -0.000041780    0.000011741
   8   H   :   -0.000041696   -0.000078613    0.000074672
   9   H   :   -0.000020082   -0.000026551    0.000002215
  10   H   :    0.000069102   -0.000009439    0.000056358
  11   H   :    0.000009508   -0.000019942   -0.000025514
  12   H   :   -0.000001075   -0.000080418   -0.000097654
  13   H   :   -0.000234451    0.000291305   -0.000014621

Norm of the cartesian gradient     ...    0.000925084
RMS gradient                       ...    0.000148132
MAX gradient                       ...    0.000587315

-------
TIMINGS
-------

Total SCF gradient time            ...       11.100 sec

One electron gradient       ....       0.046 sec  (  0.4%)
Prescreening matrices       ....       0.152 sec  (  1.4%)
Two electron gradient       ....       9.054 sec  ( 81.6%)
XC gradient                 ....       1.650 sec  ( 14.9%)
           ************************************************************
           *              Shut down parallel processing               *
           ************************************************************
------------------------------------------------------------------------------
                         ORCA GEOMETRY RELAXATION STEP
------------------------------------------------------------------------------

Reading the OPT-File                    .... done
Getting information on internals        .... done
Copying old internal coords+grads       .... done
Making the new internal coordinates     .... (new redundants).... done
Validating the new internal coordinates .... (new redundants).... done
Calculating the B-matrix                .... done
Calculating the G,G- and P matrices     .... done
Transforming gradient to internals      .... done
Projecting the internal gradient        .... done
Number of atoms                         ....  13
Number of internal coordinates          ....  57
Current Energy                          ....  -248.636985956 Eh
Current gradient norm                   ....     0.000925084 Eh/bohr
Maximum allowed component of the step   ....  0.300
Current trust radius                    ....  0.300
Evaluating the initial hessian          ....  (Almloef) done
Projecting the Hessian                  .... done
Forming the augmented Hessian           .... done
Diagonalizing the augmented Hessian     .... done
Last element of RFO vector              ....  0.999811687
Lowest eigenvalues of augmented Hessian:
 -0.000005130  0.010834440  0.010894081  0.013395830  0.013447510
Length of the computed step             ....  0.019409578
The final length of the internal step   ....  0.019409578
Converting the step to cartesian space:
 Initial RMS(Int)=    0.0025708614
Transforming coordinates:
 Iter   0:  RMS(Cart)=    0.0023683612 RMS(Int)=    0.0025707851
 Iter   1:  RMS(Cart)=    0.0000127006 RMS(Int)=    0.0000099191
 Iter   2:  RMS(Cart)=    0.0000000624 RMS(Int)=    0.0000000533
done
Storing new coordinates                 .... done

                                .--------------------.
          ----------------------|Geometry convergence|---------------------
          Item                value                 Tolerance   Converged
          -----------------------------------------------------------------
          RMS gradient        0.00008042            0.00003000      NO
          MAX gradient        0.00036109            0.00010000      NO
          RMS step            0.00257086            0.00060000      NO
          MAX step            0.01040807            0.00100000      NO
          ....................................................
          Max(Bonds)      0.0006      Max(Angles)    0.03
          Max(Dihed)        0.60      Max(Improp)    0.00
          -----------------------------------------------------------------

The optimization has not yet converged - more geometry cycles are needed


    ---------------------------------------------------------------------------
                         Redundant Internal Coordinates
                            (Angstroem and degrees)

        Definition                    Value    dE/dq     Step     New-Value
    ----------------------------------------------------------------------------
     1. B(N   1,C   0)                1.4930 -0.000287  0.0004    1.4934   
     2. B(C   2,N   1)                1.4935 -0.000064  0.0001    1.4936   
     3. B(C   3,C   2)                1.5246 -0.000021  0.0000    1.5246   
     4. B(O   4,C   3)                1.1877  0.000159 -0.0001    1.1877   
     5. B(H   5,C   0)                1.0886 -0.000030  0.0000    1.0886   
     6. B(H   6,C   0)                1.0880 -0.000042  0.0001    1.0881   
     7. B(H   7,C   0)                1.0883  0.000075 -0.0001    1.0882   
     8. B(H   8,N   1)                1.0233  0.000016 -0.0000    1.0233   
     9. B(H   9,N   1)                1.0231  0.000051 -0.0001    1.0231   
    10. B(H  10,C   2)                1.0898 -0.000024  0.0000    1.0899   
    11. B(H  11,C   2)                1.0937  0.000064 -0.0001    1.0936   
    12. B(H  12,C   3)                1.1123 -0.000361  0.0006    1.1129   
    13. A(N   1,C   0,H   7)          108.48 -0.000138    0.03    108.51   
    14. A(N   1,C   0,H   6)          108.56  0.000001   -0.00    108.56   
    15. A(N   1,C   0,H   5)          108.90  0.000036   -0.01    108.89   
    16. A(H   5,C   0,H   6)          110.32  0.000011   -0.01    110.31   
    17. A(H   5,C   0,H   7)          110.34  0.000044   -0.01    110.34   
    18. A(H   6,C   0,H   7)          110.18  0.000043   -0.00    110.18   
    19. A(C   0,N   1,H   8)          109.02 -0.000020    0.02    109.03   
    20. A(C   0,N   1,H   9)          109.03  0.000068   -0.03    109.00   
    21. A(H   8,N   1,H   9)          105.82 -0.000008    0.00    105.82   
    22. A(C   2,N   1,H   8)          109.39 -0.000014    0.02    109.41   
    23. A(C   0,N   1,C   2)          114.02 -0.000020    0.00    114.02   
    24. A(C   2,N   1,H   9)          109.24 -0.000006   -0.01    109.23   
    25. A(N   1,C   2,H  10)          108.82 -0.000012    0.00    108.82   
    26. A(N   1,C   2,C   3)          112.28 -0.000045    0.01    112.29   
    27. A(C   3,C   2,H  11)          109.08  0.000044   -0.01    109.07   
    28. A(N   1,C   2,H  11)          107.51 -0.000049    0.02    107.52   
    29. A(C   3,C   2,H  10)          110.20  0.000041   -0.01    110.18   
    30. A(H  10,C   2,H  11)          108.88  0.000020   -0.01    108.86   
    31. A(C   2,C   3,O   4)          120.95 -0.000023   -0.00    120.94   
    32. A(O   4,C   3,H  12)          122.40  0.000072   -0.02    122.38   
    33. A(C   2,C   3,H  12)          116.63 -0.000045   -0.00    116.63   
    34. D(H   9,N   1,C   0,H   5)     57.11  0.000015   -0.02     57.09   
    35. D(C   2,N   1,C   0,H   6)     59.33  0.000010   -0.04     59.30   
    36. D(H   8,N   1,C   0,H   5)    -57.97 -0.000002   -0.02    -57.98   
    37. D(H   9,N   1,C   0,H   6)    -63.03 -0.000019   -0.00    -63.04   
    38. D(C   2,N   1,C   0,H   5)    179.48  0.000045   -0.05    179.42   
    39. D(C   2,N   1,C   0,H   7)    -60.40  0.000038   -0.05    -60.45   
    40. D(H   8,N   1,C   0,H   6)   -178.11 -0.000036   -0.00   -178.11   
    41. D(H   9,N   1,C   0,H   7)    177.24  0.000008   -0.02    177.22   
    42. D(H   8,N   1,C   0,H   7)     62.16 -0.000009   -0.01     62.15   
    43. D(H  10,C   2,N   1,H   8)    175.69  0.000011    0.02    175.70   
    44. D(H  10,C   2,N   1,C   0)    -61.96 -0.000039    0.05    -61.91   
    45. D(C   3,C   2,N   1,H   9)    -61.97  0.000018    0.02    -61.96   
    46. D(C   3,C   2,N   1,H   8)     53.43 -0.000003    0.02     53.45   
    47. D(H  10,C   2,N   1,H   9)     60.29  0.000031    0.01     60.30   
    48. D(C   3,C   2,N   1,C   0)    175.78 -0.000053    0.06    175.84   
    49. D(H  11,C   2,N   1,H   9)    178.06  0.000022    0.01    178.06   
    50. D(H  11,C   2,N   1,H   8)    -66.55  0.000002    0.01    -66.53   
    51. D(H  11,C   2,N   1,C   0)     55.80 -0.000048    0.05     55.85   
    52. D(H  12,C   3,C   2,H  11)     91.75  0.000004   -0.24     91.51   
    53. D(H  12,C   3,C   2,H  10)   -148.78  0.000081   -0.27   -149.05   
    54. D(H  12,C   3,C   2,N   1)    -27.30  0.000064   -0.27    -27.57   
    55. D(O   4,C   3,C   2,H  11)    -86.58 -0.000155    0.60    -85.99   
    56. D(O   4,C   3,C   2,H  10)     32.89 -0.000079    0.57     33.45   
    57. D(O   4,C   3,C   2,N   1)    154.36 -0.000096    0.57    154.93   
    ----------------------------------------------------------------------------

         *************************************************************
         *                GEOMETRY OPTIMIZATION CYCLE   2            *
         *************************************************************
---------------------------------
CARTESIAN COORDINATES (ANGSTROEM)
---------------------------------
  C     -0.327317    0.316360   -2.424773
  N      0.409387   -0.000005   -1.164835
  C     -0.438773    0.047296    0.063716
  C      0.326319   -0.379787    1.311368
  O     -0.003758   -0.004044    2.388590
  H      0.367846    0.268114   -3.261134
  H     -0.746282    1.316896   -2.339057
  H     -1.123550   -0.414330   -2.552208
  H      0.833236   -0.927498   -1.250016
  H      1.188933    0.654428   -1.061512
  H     -0.823504    1.059567    0.186662
  H     -1.279954   -0.634374   -0.090422
  H      1.171715   -1.087624    1.160147

----------------------------
CARTESIAN COORDINATES (A.U.)
----------------------------
  NO LB      ZA    FRAG    MASS        X           Y           Z
   0 C     6.0000    0    12.011         -0.618539576182167          0.597832839879999         -4.582156674509858
   1 N     7.0000    0    14.007          0.773629065340795         -0.000010092661995         -2.201219351017460
   2 C     6.0000    0    12.011         -0.829161274021043          0.089375629258630          0.120406534510915
   3 C     6.0000    0    12.011          0.616654406195570         -0.717693887055226          2.478125515079301
   4 O     8.0000    0    15.999         -0.007100959263070         -0.007641844213002          4.513780992008928
   5 H     1.0000    0     1.008          0.695127618896188          0.506662190316568         -6.162649322011224
   6 H     1.0000    0     1.008         -1.410267719086132          2.488573574615378         -4.420177307580299
   7 H     1.0000    0     1.008         -2.123201354390349         -0.782970570948316         -4.822974282015884
   8 H     1.0000    0     1.008          1.574588780394012         -1.752716556753937         -2.362187886653375
   9 H     1.0000    0     1.008          2.246758471071105          1.236689090454855         -2.005966577757871
  10 H     1.0000    0     1.008         -1.556197972767872          2.002290563736716          0.352740991536353
  11 H     1.0000    0     1.008         -2.418763438122205         -1.198792952554239         -0.170872926398784
  12 H     1.0000    0     1.008          2.214219882174891         -2.055312172384002          2.192359409657985

--------------------------------
INTERNAL COORDINATES (ANGSTROEM)
--------------------------------
 C      0   0   0   0.000000     0.000     0.000
 N      1   0   0   1.493406     0.000     0.000
 C      2   1   0   1.493637   114.023     0.000
 C      3   2   1   1.524598   112.289   175.837
 O      4   3   2   1.187663   120.941   154.933
 H      1   2   3   1.088613   108.891   179.423
 H      1   2   3   1.088096   108.559    59.295
 H      1   2   3   1.088179   108.512   299.551
 H      2   1   3   1.023302   109.033   122.595
 H      2   1   3   1.023060   109.001   237.666
 H      3   2   1   1.089874   108.823   298.091
 H      3   2   1   1.093626   107.524    55.855
 H      4   3   2   1.112921   116.626   332.431

---------------------------
INTERNAL COORDINATES (A.U.)
---------------------------
 C      0   0   0   0.000000     0.000     0.000
 N      1   0   0   2.822129     0.000     0.000
 C      2   1   0   2.822565   114.023     0.000
 C      3   2   1   2.881073   112.289   175.837
 O      4   3   2   2.244357   120.941   154.933
 H      1   2   3   2.057180   108.891   179.423
 H      1   2   3   2.056203   108.559    59.295
 H      1   2   3   2.056360   108.512   299.551
 H      2   1   3   1.933760   109.033   122.595
 H      2   1   3   1.933303   109.001   237.666
 H      3   2   1   2.059564   108.823   298.091
 H      3   2   1   2.066654   107.524    55.855
 H      4   3   2   2.103117   116.626   332.431



           ************************************************************
           *        Program running with 8 parallel MPI-processes     *
           *              working on a common directory               *
           ************************************************************
           ************************************************************
           *              Shut down parallel processing               *
           ************************************************************


           ************************************************************
           *        Program running with 8 parallel MPI-processes     *
           *              working on a common directory               *
           ************************************************************

Diagonalization of the overlap matrix:
Smallest eigenvalue                        ... 4.719e-04
Time for diagonalization                   ...    0.011 sec
Threshold for overlap eigenvalues          ... 1.000e-08
Number of eigenvalues below threshold      ... 0
Time for construction of square roots      ...    0.004 sec
Total time needed                          ...    0.016 sec

-------------------
DFT GRID GENERATION
-------------------

General Integration Accuracy     IntAcc      ...  4.340
Radial Grid Type                 RadialGrid  ... Gauss-Chebyshev
Angular Grid (max. acc.)         AngularGrid ... Lebedev-194
Angular grid pruning method      GridPruning ... 3 (G Style)
Weight generation scheme         WeightScheme... Becke
Basis function cutoff            BFCut       ...    1.0000e-11
Integration weight cutoff        WCut        ...    1.0000e-14
Grids for H and He will be reduced by one unit

# of grid points (after initial pruning)     ...  28754 (   0.0 sec)
# of grid points (after weights+screening)   ...  26963 (   0.0 sec)
nearest neighbour list constructed           ...    0.0 sec
Grid point re-assignment to atoms done       ...    0.0 sec
Grid point division into batches done        ...    0.0 sec
Reduced shell lists constructed in    0.1 sec

Total number of grid points                  ...    26963
Total number of batches                      ...      427
Average number of points per batch           ...       63
Average number of grid points per atom       ...     2074
Average number of shells per batch           ...    71.89 (82.63%)
Average number of basis functions per batch  ...   168.15 (82.83%)
Average number of large shells per batch     ...    62.15 (86.44%)
Average number of large basis fcns per batch ...   146.11 (86.89%)
Maximum spatial batch extension              ...   2.25,  1.61,  2.00 au
Average spatial batch extension              ...   0.14,  0.13,  0.13 au

Time for grid setup =    0.125 sec

--------------
SCF ITERATIONS
--------------
ITER       Energy         Delta-E        Max-DP      RMS-DP      [F,P]     Damp
               ***  Starting incremental Fock matrix formation  ***
                      *** Initiating the SOSCF procedure ***
                      *** Re-Reading the Fockian *** 
                      *** Removing any level shift *** 
ITER      Energy       Delta-E        Grad      Rot      Max-DP    RMS-DP
  0   -248.63714284 -248.6371428407  0.001136  0.001136  0.001394  0.000032
               *** Restarting incremental Fock matrix formation ***
  1   -248.63717920  -0.0000363625  0.000427  0.001048  0.000539  0.000014
  2   -248.63718359  -0.0000043856  0.000099  0.000229  0.000199  0.000004
  3   -248.63718362  -0.0000000299  0.000151  0.000174  0.000181  0.000003
  4   -248.63718375  -0.0000001305  0.000049  0.000056  0.000073  0.000002
  5   -248.63718376  -0.0000000134  0.000013  0.000015  0.000020  0.000001
  6   -248.63718377  -0.0000000112  0.000004  0.000006  0.000004  0.000000
  7   -248.63718377   0.0000000001  0.000003  0.000002  0.000001  0.000000
                 **** Energy Check signals convergence ****
              ***Rediagonalizing the Fockian in SOSCF/NRSCF***

               *****************************************************
               *                     SUCCESS                       *
               *           SCF CONVERGED AFTER   8 CYCLES          *
               *****************************************************

Setting up the final grid:

General Integration Accuracy     IntAcc      ...  5.010
Radial Grid Type                 RadialGrid  ... Gauss-Chebyshev
Angular Grid (max. acc.)         AngularGrid ... Lebedev-434
Angular grid pruning method      GridPruning ... 3 (G Style)
Weight generation scheme         WeightScheme... Becke
Basis function cutoff            BFCut       ...    1.0000e-11
Integration weight cutoff        WCut        ...    1.0000e-14
Grids for H and He will be reduced by one unit

# of grid points (after initial pruning)     ... 107062 (   0.0 sec)
# of grid points (after weights+screening)   ...  99224 (   0.1 sec)
nearest neighbour list constructed           ...    0.0 sec
Grid point re-assignment to atoms done       ...    0.0 sec
Grid point division into batches done        ...    0.7 sec
Reduced shell lists constructed in    0.9 sec

Total number of grid points                  ...    99224
Total number of batches                      ...     1558
Average number of points per batch           ...       63
Average number of grid points per atom       ...     7633
Average number of shells per batch           ...    72.16 (82.95%)
Average number of basis functions per batch  ...   169.13 (83.32%)
Average number of large shells per batch     ...    61.98 (85.90%)
Average number of large basis fcns per batch ...   146.29 (86.49%)
Maximum spatial batch extension              ...   1.93,  1.61,  1.84 au
Average spatial batch extension              ...   0.10,  0.09,  0.09 au

Final grid set up in    1.0 sec
Final integration                            ... done (   0.4 sec)
Change in XC energy                          ...     0.000201095
Integrated number of electrons               ...    39.999985953
Previous integrated no of electrons          ...    39.999936934
Total Energy       :         -248.63698268 Eh           -6765.75626 eV
  Last Energy change         ...   -4.9715e-10  Tolerance :   1.0000e-08
  Last MAX-Density change    ...    1.4560e-06  Tolerance :   1.0000e-07
             **** THE GBW FILE WAS UPDATED (0197_+.gbw) ****
             **** DENSITY FILE WAS UPDATED (0197_+.scfp.tmp) ****
             **** ENERGY FILE WAS UPDATED (0197_+.en.tmp) ****
Total SCF time: 0 days 0 hours 0 min 16 sec 
           ************************************************************
           *              Shut down parallel processing               *
           ************************************************************

-------------------------   --------------------
FINAL SINGLE POINT ENERGY      -248.636982679048
-------------------------   --------------------



           ************************************************************
           *        Program running with 8 parallel MPI-processes     *
           *              working on a common directory               *
           ************************************************************
------------------------------------------------------------------------------
                         ORCA SCF GRADIENT CALCULATION
------------------------------------------------------------------------------

Gradient of the Kohn-Sham DFT energy:
Kohn-Sham wavefunction type      ... RKS
Hartree-Fock exchange scaling    ...    0.250
Number of operators              ...    1
Number of atoms                  ...   13
Basis set dimensions             ...  203
Integral neglect threshold       ... 2.5e-11
Integral primitive cutoff        ... 2.5e-12

Nuclear repulsion gradient       ... done
One Electron Gradient            ... done
Pre-screening matrix             ... done
Starting the two electron gradient:
Two electron gradient done
Exchange-correlation gradient    ... done

------------------
CARTESIAN GRADIENT
------------------

   1   C   :    0.000058120   -0.000015865    0.000037013
   2   N   :   -0.000016708    0.000067349   -0.000059956
   3   C   :   -0.000304336   -0.000319957    0.000110690
   4   C   :    0.000879207    0.000989209   -0.000138724
   5   O   :   -0.000248801   -0.000314348    0.000075802
   6   H   :   -0.000007618   -0.000003999   -0.000014097
   7   H   :   -0.000018236    0.000006912   -0.000012880
   8   H   :   -0.000010137   -0.000015191    0.000027996
   9   H   :    0.000004472   -0.000005125    0.000005844
  10   H   :    0.000025326   -0.000023541    0.000046879
  11   H   :    0.000015539   -0.000019132    0.000043470
  12   H   :   -0.000022343   -0.000005366   -0.000147774
  13   H   :   -0.000354485   -0.000340945    0.000025737

Norm of the cartesian gradient     ...    0.001559083
RMS gradient                       ...    0.000249653
MAX gradient                       ...    0.000989209

-------
TIMINGS
-------

Total SCF gradient time            ...       11.092 sec

One electron gradient       ....       0.048 sec  (  0.4%)
Prescreening matrices       ....       0.157 sec  (  1.4%)
Two electron gradient       ....       9.030 sec  ( 81.4%)
XC gradient                 ....       1.671 sec  ( 15.1%)
           ************************************************************
           *              Shut down parallel processing               *
           ************************************************************
------------------------------------------------------------------------------
                         ORCA GEOMETRY RELAXATION STEP
------------------------------------------------------------------------------

Reading the OPT-File                    .... done
Getting information on internals        .... done
Copying old internal coords+grads       .... done
Making the new internal coordinates     .... (new redundants).... done
Validating the new internal coordinates .... (new redundants).... done
Calculating the B-matrix                .... done
Calculating the G,G- and P matrices     .... done
Transforming gradient to internals      .... done
Projecting the internal gradient        .... done
Number of atoms                         ....  13
Number of internal coordinates          ....  57
Current Energy                          ....  -248.636982679 Eh
Current gradient norm                   ....     0.001559083 Eh/bohr
Maximum allowed component of the step   ....  0.300
Current trust radius                    ....  0.300
Updating the Hessian (BFGS)             .... done
Forming the augmented Hessian           .... done
Diagonalizing the augmented Hessian     .... done
Last element of RFO vector              ....  0.999900628
Lowest eigenvalues of augmented Hessian:
 -0.000009807  0.009360565  0.013312019  0.013430072  0.049473509
Length of the computed step             ....  0.014098683
The final length of the internal step   ....  0.014098683
Converting the step to cartesian space:
 Initial RMS(Int)=    0.0018674161
Transforming coordinates:
 Iter   0:  RMS(Cart)=    0.0018821399 RMS(Int)=    0.0018674797
 Iter   1:  RMS(Cart)=    0.0000066481 RMS(Int)=    0.0000057156
 Iter   2:  RMS(Cart)=    0.0000000238 RMS(Int)=    0.0000000205
done
Storing new coordinates                 .... done

                                .--------------------.
          ----------------------|Geometry convergence|---------------------
          Item                value                 Tolerance   Converged
          -----------------------------------------------------------------
          Energy change       0.00000328            0.00000100      NO
          RMS gradient        0.00010033            0.00003000      NO
          MAX gradient        0.00035198            0.00010000      NO
          RMS step            0.00186742            0.00060000      NO
          MAX step            0.00725718            0.00100000      NO
          ....................................................
          Max(Bonds)      0.0002      Max(Angles)    0.02
          Max(Dihed)        0.42      Max(Improp)    0.00
          -----------------------------------------------------------------

The optimization has not yet converged - more geometry cycles are needed


    ---------------------------------------------------------------------------
                         Redundant Internal Coordinates
                            (Angstroem and degrees)

        Definition                    Value    dE/dq     Step     New-Value
    ----------------------------------------------------------------------------
     1. B(N   1,C   0)                1.4934 -0.000049  0.0002    1.4936   
     2. B(C   2,N   1)                1.4936 -0.000006  0.0000    1.4937   
     3. B(C   3,C   2)                1.5246  0.000015  0.0000    1.5246   
     4. B(O   4,C   3)                1.1877  0.000039 -0.0000    1.1876   
     5. B(H   5,C   0)                1.0886  0.000006  0.0000    1.0886   
     6. B(H   6,C   0)                1.0881  0.000012  0.0000    1.0881   
     7. B(H   7,C   0)                1.0882  0.000015 -0.0000    1.0881   
     8. B(H   8,N   1)                1.0233  0.000007 -0.0000    1.0233   
     9. B(H   9,N   1)                1.0231  0.000008 -0.0000    1.0230   
    10. B(H  10,C   2)                1.0899 -0.000017  0.0000    1.0899   
    11. B(H  11,C   2)                1.0936  0.000040 -0.0000    1.0936   
    12. B(H  12,C   3)                1.1129 -0.000056  0.0002    1.1131   
    13. A(N   1,C   0,H   7)          108.51 -0.000053    0.01    108.53   
    14. A(N   1,C   0,H   6)          108.56  0.000031   -0.00    108.56   
    15. A(N   1,C   0,H   5)          108.89  0.000027   -0.00    108.89   
    16. A(H   5,C   0,H   6)          110.31 -0.000012   -0.00    110.31   
    17. A(H   5,C   0,H   7)          110.34  0.000008   -0.00    110.33   
    18. A(H   6,C   0,H   7)          110.18 -0.000001    0.00    110.18   
    19. A(C   0,N   1,H   8)          109.03 -0.000006    0.01    109.04   
    20. A(C   0,N   1,H   9)          109.00  0.000049   -0.02    108.99   
    21. A(H   8,N   1,H   9)          105.82 -0.000010    0.00    105.82   
    22. A(C   2,N   1,H   8)          109.41 -0.000004    0.01    109.42   
    23. A(C   0,N   1,C   2)          114.02 -0.000013    0.00    114.02   
    24. A(C   2,N   1,H   9)          109.23 -0.000015   -0.00    109.23   
    25. A(N   1,C   2,H  10)          108.82  0.000067    0.00    108.82   
    26. A(N   1,C   2,C   3)          112.29 -0.000135    0.01    112.30   
    27. A(C   3,C   2,H  11)          109.07  0.000149   -0.01    109.06   
    28. A(N   1,C   2,H  11)          107.52 -0.000061    0.01    107.53   
    29. A(C   3,C   2,H  10)          110.18 -0.000011   -0.00    110.18   
    30. A(H  10,C   2,H  11)          108.86 -0.000009   -0.01    108.86   
    31. A(C   2,C   3,O   4)          120.94  0.000031    0.00    120.95   
    32. A(O   4,C   3,H  12)          122.38  0.000016    0.00    122.38   
    33. A(C   2,C   3,H  12)          116.63 -0.000069    0.01    116.64   
    34. D(H   9,N   1,C   0,H   5)     57.09  0.000013   -0.01     57.08   
    35. D(C   2,N   1,C   0,H   6)     59.30  0.000002   -0.02     59.28   
    36. D(H   8,N   1,C   0,H   5)    -57.98  0.000002   -0.01    -57.99   
    37. D(H   9,N   1,C   0,H   6)    -63.04 -0.000006   -0.00    -63.04   
    38. D(C   2,N   1,C   0,H   5)    179.42  0.000021   -0.03    179.40   
    39. D(C   2,N   1,C   0,H   7)    -60.45  0.000015   -0.03    -60.47   
    40. D(H   8,N   1,C   0,H   6)   -178.11 -0.000017   -0.00   -178.11   
    41. D(H   9,N   1,C   0,H   7)    177.22  0.000007   -0.01    177.21   
    42. D(H   8,N   1,C   0,H   7)     62.15 -0.000003   -0.01     62.14   
    43. D(H  10,C   2,N   1,H   8)    175.70 -0.000020    0.01    175.72   
    44. D(H  10,C   2,N   1,C   0)    -61.91 -0.000040    0.03    -61.88   
    45. D(C   3,C   2,N   1,H   9)    -61.96  0.000059    0.00    -61.95   
    46. D(C   3,C   2,N   1,H   8)     53.45  0.000036    0.01     53.46   
    47. D(H  10,C   2,N   1,H   9)     60.30  0.000003    0.01     60.31   
    48. D(C   3,C   2,N   1,C   0)    175.84  0.000016    0.02    175.86   
    49. D(H  11,C   2,N   1,H   9)    178.06 -0.000005    0.01    178.07   
    50. D(H  11,C   2,N   1,H   8)    -66.53 -0.000028    0.01    -66.52   
    51. D(H  11,C   2,N   1,C   0)     55.85 -0.000048    0.03     55.88   
    52. D(H  12,C   3,C   2,H  11)     91.51 -0.000352    0.42     91.93   
    53. D(H  12,C   3,C   2,H  10)   -149.05 -0.000277    0.40   -148.65   
    54. D(H  12,C   3,C   2,N   1)    -27.57 -0.000291    0.41    -27.16   
    55. D(O   4,C   3,C   2,H  11)    -85.99  0.000214   -0.21    -86.20   
    56. D(O   4,C   3,C   2,H  10)     33.45  0.000289   -0.23     33.22   
    57. D(O   4,C   3,C   2,N   1)    154.93  0.000275   -0.22    154.71   
    ----------------------------------------------------------------------------

         *************************************************************
         *                GEOMETRY OPTIMIZATION CYCLE   3            *
         *************************************************************
---------------------------------
CARTESIAN COORDINATES (ANGSTROEM)
---------------------------------
  C     -0.327154    0.316718   -2.424795
  N      0.408994   -0.000996   -1.164691
  C     -0.439453    0.046425    0.063698
  C      0.324846   -0.381417    1.311580
  O     -0.002979   -0.002631    2.388392
  H      0.368372    0.268732   -3.260884
  H     -0.745518    1.317473   -2.338505
  H     -1.123759   -0.413321   -2.553261
  H      0.832321   -0.928683   -1.250229
  H      1.188855    0.652953   -1.060924
  H     -0.823736    1.058867    0.186802
  H     -1.280974   -0.634703   -0.090628
  H      1.174484   -1.084420    1.159971

----------------------------
CARTESIAN COORDINATES (A.U.)
----------------------------
  NO LB      ZA    FRAG    MASS        X           Y           Z
   0 C     6.0000    0    12.011         -0.618232009834068          0.598509355533646         -4.582198044103460
   1 N     7.0000    0    14.007          0.772885893503570         -0.001881322060194         -2.200946682539051
   2 C     6.0000    0    12.011         -0.830445266359885          0.087729881579265          0.120370989779367
   3 C     6.0000    0    12.011          0.613870908483947         -0.720773500603356          2.478526214372159
   4 O     8.0000    0    15.999         -0.005629097447577         -0.004971353184991          4.513406479366671
   5 H     1.0000    0     1.008          0.696122434074239          0.507829427366607         -6.162177279198564
   6 H     1.0000    0     1.008         -1.408825315840808          2.489662886666876         -4.419133108682794
   7 H     1.0000    0     1.008         -2.123596745748165         -0.781064296798111         -4.824963872843713
   8 H     1.0000    0     1.008          1.572858063683920         -1.754956469722305         -2.362589642031311
   9 H     1.0000    0     1.008          2.246609766313378          1.233902283002752         -2.004855663175427
  10 H     1.0000    0     1.008         -1.556635571532252          2.000969582477933          0.353004632042192
  11 H     1.0000    0     1.008         -2.420689852706819         -1.199414044422243         -0.171261588406283
  12 H     1.0000    0     1.008          2.219452723650242         -2.049256618144450          2.192026680268942

--------------------------------
INTERNAL COORDINATES (ANGSTROEM)
--------------------------------
 C      0   0   0   0.000000     0.000     0.000
 N      1   0   0   1.493559     0.000     0.000
 C      2   1   0   1.493669   114.024     0.000
 C      3   2   1   1.524602   112.300   175.859
 O      4   3   2   1.187633   120.947   154.709
 H      1   2   3   1.088625   108.886   179.396
 H      1   2   3   1.088111   108.557    59.276
 H      1   2   3   1.088136   108.525   299.526
 H      2   1   3   1.023292   109.040   122.612
 H      2   1   3   1.023034   108.985   237.682
 H      3   2   1   1.089894   108.824   298.119
 H      3   2   1   1.093576   107.534    55.882
 H      4   3   2   1.113141   116.640   332.836

---------------------------
INTERNAL COORDINATES (A.U.)
---------------------------
 C      0   0   0   0.000000     0.000     0.000
 N      1   0   0   2.822417     0.000     0.000
 C      2   1   0   2.822626   114.024     0.000
 C      3   2   1   2.881080   112.300   175.859
 O      4   3   2   2.244302   120.947   154.709
 H      1   2   3   2.057203   108.886   179.396
 H      1   2   3   2.056232   108.557    59.276
 H      1   2   3   2.056279   108.525   299.526
 H      2   1   3   1.933742   109.040   122.612
 H      2   1   3   1.933255   108.985   237.682
 H      3   2   1   2.059601   108.824   298.119
 H      3   2   1   2.066559   107.534    55.882
 H      4   3   2   2.103531   116.640   332.836



           ************************************************************
           *        Program running with 8 parallel MPI-processes     *
           *              working on a common directory               *
           ************************************************************
           ************************************************************
           *              Shut down parallel processing               *
           ************************************************************


           ************************************************************
           *        Program running with 8 parallel MPI-processes     *
           *              working on a common directory               *
           ************************************************************

Diagonalization of the overlap matrix:
Smallest eigenvalue                        ... 4.720e-04
Time for diagonalization                   ...    0.011 sec
Threshold for overlap eigenvalues          ... 1.000e-08
Number of eigenvalues below threshold      ... 0
Time for construction of square roots      ...    0.004 sec
Total time needed                          ...    0.015 sec

-------------------
DFT GRID GENERATION
-------------------

General Integration Accuracy     IntAcc      ...  4.340
Radial Grid Type                 RadialGrid  ... Gauss-Chebyshev
Angular Grid (max. acc.)         AngularGrid ... Lebedev-194
Angular grid pruning method      GridPruning ... 3 (G Style)
Weight generation scheme         WeightScheme... Becke
Basis function cutoff            BFCut       ...    1.0000e-11
Integration weight cutoff        WCut        ...    1.0000e-14
Grids for H and He will be reduced by one unit

# of grid points (after initial pruning)     ...  28754 (   0.0 sec)
# of grid points (after weights+screening)   ...  26964 (   0.0 sec)
nearest neighbour list constructed           ...    0.0 sec
Grid point re-assignment to atoms done       ...    0.0 sec
Grid point division into batches done        ...    0.0 sec
Reduced shell lists constructed in    0.1 sec

Total number of grid points                  ...    26964
Total number of batches                      ...      428
Average number of points per batch           ...       63
Average number of grid points per atom       ...     2074
Average number of shells per batch           ...    71.91 (82.65%)
Average number of basis functions per batch  ...   168.16 (82.84%)
Average number of large shells per batch     ...    62.15 (86.42%)
Average number of large basis fcns per batch ...   146.11 (86.89%)
Maximum spatial batch extension              ...   2.25,  1.62,  2.00 au
Average spatial batch extension              ...   0.14,  0.12,  0.13 au

Time for grid setup =    0.124 sec

--------------
SCF ITERATIONS
--------------
ITER       Energy         Delta-E        Max-DP      RMS-DP      [F,P]     Damp
               ***  Starting incremental Fock matrix formation  ***
                      *** Initiating the SOSCF procedure ***
                      *** Re-Reading the Fockian *** 
                      *** Removing any level shift *** 
ITER      Energy       Delta-E        Grad      Rot      Max-DP    RMS-DP
  0   -248.63717831 -248.6371783083  0.000509  0.000509  0.000794  0.000016
               *** Restarting incremental Fock matrix formation ***
  1   -248.63718635  -0.0000080409  0.000164  0.000598  0.000288  0.000009
  2   -248.63718742  -0.0000010706  0.000046  0.000272  0.000136  0.000003
  3   -248.63718743  -0.0000000073  0.000102  0.000111  0.000141  0.000002
  4   -248.63718748  -0.0000000528  0.000022  0.000050  0.000065  0.000001
                 **** Energy Check signals convergence ****
              ***Rediagonalizing the Fockian in SOSCF/NRSCF***

               *****************************************************
               *                     SUCCESS                       *
               *           SCF CONVERGED AFTER   5 CYCLES          *
               *****************************************************

Setting up the final grid:

General Integration Accuracy     IntAcc      ...  5.010
Radial Grid Type                 RadialGrid  ... Gauss-Chebyshev
Angular Grid (max. acc.)         AngularGrid ... Lebedev-434
Angular grid pruning method      GridPruning ... 3 (G Style)
Weight generation scheme         WeightScheme... Becke
Basis function cutoff            BFCut       ...    1.0000e-11
Integration weight cutoff        WCut        ...    1.0000e-14
Grids for H and He will be reduced by one unit

# of grid points (after initial pruning)     ... 107062 (   0.0 sec)
# of grid points (after weights+screening)   ...  99222 (   0.1 sec)
nearest neighbour list constructed           ...    0.0 sec
Grid point re-assignment to atoms done       ...    0.0 sec
Grid point division into batches done        ...    0.7 sec
Reduced shell lists constructed in    0.9 sec

Total number of grid points                  ...    99222
Total number of batches                      ...     1557
Average number of points per batch           ...       63
Average number of grid points per atom       ...     7632
Average number of shells per batch           ...    72.20 (82.99%)
Average number of basis functions per batch  ...   169.27 (83.38%)
Average number of large shells per batch     ...    62.06 (85.95%)
Average number of large basis fcns per batch ...   146.48 (86.54%)
Maximum spatial batch extension              ...   1.93,  1.62,  2.36 au
Average spatial batch extension              ...   0.10,  0.09,  0.09 au

Final grid set up in    1.0 sec
Final integration                            ... done (   0.4 sec)
Change in XC energy                          ...     0.000199598
Integrated number of electrons               ...    39.999985967
Previous integrated no of electrons          ...    39.999925865
Total Energy       :         -248.63698789 Eh           -6765.75640 eV
  Last Energy change         ...   -5.6233e-09  Tolerance :   1.0000e-08
  Last MAX-Density change    ...    1.4460e-05  Tolerance :   1.0000e-07
             **** THE GBW FILE WAS UPDATED (0197_+.gbw) ****
             **** DENSITY FILE WAS UPDATED (0197_+.scfp.tmp) ****
             **** ENERGY FILE WAS UPDATED (0197_+.en.tmp) ****
Total SCF time: 0 days 0 hours 0 min 12 sec 
           ************************************************************
           *              Shut down parallel processing               *
           ************************************************************

-------------------------   --------------------
FINAL SINGLE POINT ENERGY      -248.636987887049
-------------------------   --------------------



           ************************************************************
           *        Program running with 8 parallel MPI-processes     *
           *              working on a common directory               *
           ************************************************************
------------------------------------------------------------------------------
                         ORCA SCF GRADIENT CALCULATION
------------------------------------------------------------------------------

Gradient of the Kohn-Sham DFT energy:
Kohn-Sham wavefunction type      ... RKS
Hartree-Fock exchange scaling    ...    0.250
Number of operators              ...    1
Number of atoms                  ...   13
Basis set dimensions             ...  203
Integral neglect threshold       ... 2.5e-11
Integral primitive cutoff        ... 2.5e-12

Nuclear repulsion gradient       ... done
One Electron Gradient            ... done
Pre-screening matrix             ... done
Starting the two electron gradient:
Two electron gradient done
Exchange-correlation gradient    ... done

------------------
CARTESIAN GRADIENT
------------------

   1   C   :    0.000014184   -0.000028959   -0.000000038
   2   N   :    0.000038908    0.000056880   -0.000061384
   3   C   :   -0.000065344   -0.000025619    0.000092040
   4   C   :   -0.000016791    0.000081305    0.000009626
   5   O   :    0.000018623    0.000025367    0.000009455
   6   H   :   -0.000008302   -0.000002353   -0.000024399
   7   H   :   -0.000023015    0.000017006   -0.000019066
   8   H   :    0.000002121    0.000009575    0.000006582
   9   H   :    0.000014524    0.000002195    0.000011707
  10   H   :   -0.000002066   -0.000029140    0.000033679
  11   H   :   -0.000015423   -0.000001504    0.000017871
  12   H   :    0.000030883   -0.000015871   -0.000055219
  13   H   :    0.000011697   -0.000088883   -0.000020854

Norm of the cartesian gradient     ...    0.000220539
RMS gradient                       ...    0.000035315
MAX gradient                       ...    0.000092040

-------
TIMINGS
-------

Total SCF gradient time            ...       11.030 sec

One electron gradient       ....       0.046 sec  (  0.4%)
Prescreening matrices       ....       0.149 sec  (  1.3%)
Two electron gradient       ....       8.974 sec  ( 81.4%)
XC gradient                 ....       1.679 sec  ( 15.2%)
           ************************************************************
           *              Shut down parallel processing               *
           ************************************************************
------------------------------------------------------------------------------
                         ORCA GEOMETRY RELAXATION STEP
------------------------------------------------------------------------------

Reading the OPT-File                    .... done
Getting information on internals        .... done
Copying old internal coords+grads       .... done
Making the new internal coordinates     .... (new redundants).... done
Validating the new internal coordinates .... (new redundants).... done
Calculating the B-matrix                .... done
Calculating the G,G- and P matrices     .... done
Transforming gradient to internals      .... done
Projecting the internal gradient        .... done
Number of atoms                         ....  13
Number of internal coordinates          ....  57
Current Energy                          ....  -248.636987887 Eh
Current gradient norm                   ....     0.000220539 Eh/bohr
Maximum allowed component of the step   ....  0.300
Current trust radius                    ....  0.300
Updating the Hessian (BFGS)             .... done
Forming the augmented Hessian           .... done
Diagonalizing the augmented Hessian     .... done
Last element of RFO vector              ....  0.999962678
Lowest eigenvalues of augmented Hessian:
 -0.000000743  0.008777527  0.013304279  0.013429993  0.049983177
Length of the computed step             ....  0.008639926
The final length of the internal step   ....  0.008639926
Converting the step to cartesian space:
 Initial RMS(Int)=    0.0011443862
Transforming coordinates:
 Iter   0:  RMS(Cart)=    0.0014294466 RMS(Int)=    0.0011444086
 Iter   1:  RMS(Cart)=    0.0000018867 RMS(Int)=    0.0000015255
 Iter   2:  RMS(Cart)=    0.0000000055 RMS(Int)=    0.0000000045
done
Storing new coordinates                 .... done

                                .--------------------.
          ----------------------|Geometry convergence|---------------------
          Item                value                 Tolerance   Converged
          -----------------------------------------------------------------
          Energy change      -0.00000521            0.00000100      NO
          RMS gradient        0.00002248            0.00003000      YES
          MAX gradient        0.00006783            0.00010000      YES
          RMS step            0.00114439            0.00060000      NO
          MAX step            0.00399787            0.00100000      NO
          ....................................................
          Max(Bonds)      0.0001      Max(Angles)    0.02
          Max(Dihed)        0.23      Max(Improp)    0.00
          -----------------------------------------------------------------

The optimization has not yet converged - more geometry cycles are needed


    ---------------------------------------------------------------------------
                         Redundant Internal Coordinates
                            (Angstroem and degrees)

        Definition                    Value    dE/dq     Step     New-Value
    ----------------------------------------------------------------------------
     1. B(N   1,C   0)                1.4936  0.000038  0.0000    1.4936   
     2. B(C   2,N   1)                1.4937  0.000063 -0.0001    1.4936   
     3. B(C   3,C   2)                1.5246  0.000000  0.0000    1.5246   
     4. B(O   4,C   3)                1.1876  0.000012 -0.0000    1.1876   
     5. B(H   5,C   0)                1.0886  0.000013 -0.0000    1.0886   
     6. B(H   6,C   0)                1.0881  0.000023 -0.0000    1.0881   
     7. B(H   7,C   0)                1.0881 -0.000008 -0.0000    1.0881   
     8. B(H   8,N   1)                1.0233  0.000004 -0.0000    1.0233   
     9. B(H   9,N   1)                1.0230 -0.000018  0.0000    1.0230   
    10. B(H  10,C   2)                1.0899  0.000007 -0.0000    1.0899   
    11. B(H  11,C   2)                1.0936 -0.000007 -0.0000    1.0936   
    12. B(H  12,C   3)                1.1131  0.000068 -0.0000    1.1131   
    13. A(N   1,C   0,H   7)          108.53 -0.000016    0.01    108.53   
    14. A(N   1,C   0,H   6)          108.56  0.000034   -0.01    108.55   
    15. A(N   1,C   0,H   5)          108.89  0.000029   -0.01    108.88   
    16. A(H   5,C   0,H   6)          110.31 -0.000020   -0.00    110.31   
    17. A(H   5,C   0,H   7)          110.33 -0.000010    0.00    110.34   
    18. A(H   6,C   0,H   7)          110.18 -0.000016    0.00    110.18   
    19. A(C   0,N   1,H   8)          109.04 -0.000004    0.01    109.05   
    20. A(C   0,N   1,H   9)          108.99  0.000029   -0.02    108.97   
    21. A(H   8,N   1,H   9)          105.82 -0.000007    0.01    105.83   
    22. A(C   2,N   1,H   8)          109.42 -0.000009    0.01    109.43   
    23. A(C   0,N   1,C   2)          114.02  0.000010   -0.00    114.02   
    24. A(C   2,N   1,H   9)          109.23 -0.000019    0.00    109.23   
    25. A(N   1,C   2,H  10)          108.82  0.000013   -0.00    108.82   
    26. A(N   1,C   2,C   3)          112.30 -0.000029    0.01    112.31   
    27. A(C   3,C   2,H  11)          109.06  0.000033   -0.01    109.05   
    28. A(N   1,C   2,H  11)          107.53 -0.000025    0.01    107.55   
    29. A(C   3,C   2,H  10)          110.18  0.000003   -0.00    110.18   
    30. A(H  10,C   2,H  11)          108.86  0.000005   -0.01    108.85   
    31. A(C   2,C   3,O   4)          120.95  0.000020   -0.00    120.94   
    32. A(O   4,C   3,H  12)          122.39  0.000009   -0.00    122.38   
    33. A(C   2,C   3,H  12)          116.64 -0.000030    0.01    116.65   
    34. D(H   9,N   1,C   0,H   5)     57.08  0.000009   -0.02     57.06   
    35. D(C   2,N   1,C   0,H   6)     59.28  0.000000   -0.02     59.25   
    36. D(H   8,N   1,C   0,H   5)    -57.99  0.000004   -0.02    -58.01   
    37. D(H   9,N   1,C   0,H   6)    -63.04 -0.000003   -0.01    -63.05   
    38. D(C   2,N   1,C   0,H   5)    179.40  0.000013   -0.03    179.36   
    39. D(C   2,N   1,C   0,H   7)    -60.47  0.000009   -0.03    -60.50   
    40. D(H   8,N   1,C   0,H   6)   -178.11 -0.000008   -0.01   -178.12   
    41. D(H   9,N   1,C   0,H   7)    177.21  0.000005   -0.02    177.19   
    42. D(H   8,N   1,C   0,H   7)     62.14 -0.000000   -0.02     62.12   
    43. D(H  10,C   2,N   1,H   8)    175.72 -0.000012    0.03    175.74   
    44. D(H  10,C   2,N   1,C   0)    -61.88 -0.000018    0.04    -61.84   
    45. D(C   3,C   2,N   1,H   9)    -61.95  0.000019    0.01    -61.94   
    46. D(C   3,C   2,N   1,H   8)     53.46 -0.000006    0.02     53.48   
    47. D(H  10,C   2,N   1,H   9)     60.31  0.000012    0.01     60.32   
    48. D(C   3,C   2,N   1,C   0)    175.86 -0.000012    0.04    175.89   
    49. D(H  11,C   2,N   1,H   9)    178.07  0.000012    0.01    178.08   
    50. D(H  11,C   2,N   1,H   8)    -66.52 -0.000013    0.02    -66.50   
    51. D(H  11,C   2,N   1,C   0)     55.88 -0.000019    0.03     55.92   
    52. D(H  12,C   3,C   2,H  11)     91.93 -0.000057    0.23     92.15   
    53. D(H  12,C   3,C   2,H  10)   -148.65 -0.000028    0.21   -148.44   
    54. D(H  12,C   3,C   2,N   1)    -27.16 -0.000029    0.22    -26.95   
    55. D(O   4,C   3,C   2,H  11)    -86.20 -0.000039    0.18    -86.02   
    56. D(O   4,C   3,C   2,H  10)     33.22 -0.000011    0.17     33.39   
    57. D(O   4,C   3,C   2,N   1)    154.71 -0.000012    0.17    154.88   
    ----------------------------------------------------------------------------

         *************************************************************
         *                GEOMETRY OPTIMIZATION CYCLE   4            *
         *************************************************************
---------------------------------
CARTESIAN COORDINATES (ANGSTROEM)
---------------------------------
  C     -0.327234    0.316773   -2.424765
  N      0.408877   -0.001629   -1.164798
  C     -0.439331    0.046432    0.063636
  C      0.324807   -0.381250    1.311676
  O     -0.004747   -0.004358    2.388605
  H      0.368337    0.268800   -3.260800
  H     -0.745045    1.317695   -2.338051
  H     -1.124168   -0.412838   -2.553561
  H      0.831662   -0.929541   -1.250472
  H      1.189072    0.651980   -1.061273
  H     -0.823290    1.059026    0.186463
  H     -1.281176   -0.634403   -0.090169
  H      1.176533   -1.081690    1.160034

----------------------------
CARTESIAN COORDINATES (A.U.)
----------------------------
  NO LB      ZA    FRAG    MASS        X           Y           Z
   0 C     6.0000    0    12.011         -0.618381705188144          0.598615000346535         -4.582140917768805
   1 N     7.0000    0    14.007          0.772666433494321         -0.003078536833816         -2.201148954462409
   2 C     6.0000    0    12.011         -0.830214578302035          0.087742882104727          0.120253904162439
   3 C     6.0000    0    12.011          0.613796172290967         -0.720458840800093          2.478708171944511
   4 O     8.0000    0    15.999         -0.008969783732498         -0.008235919116055          4.513809645783884
   5 H     1.0000    0     1.008          0.696056628379863          0.507959224255910         -6.162018109868535
   6 H     1.0000    0     1.008         -1.407931358998132          2.490082922595198         -4.418275387536450
   7 H     1.0000    0     1.008         -2.124369481573682         -0.780150878526074         -4.825531269127399
   8 H     1.0000    0     1.008          1.571613023332636         -1.756578802740414         -2.363049512255472
   9 H     1.0000    0     1.008          2.247020342904243          1.232063113149334         -2.005514664442651
  10 H     1.0000    0     1.008         -1.555793100952112          2.001269961347482          0.352363366585545
  11 H     1.0000    0     1.008         -2.421071099785919         -1.198847392399917         -0.170394369929631
  12 H     1.0000    0     1.008          2.223324438370215         -2.044096921691389          2.192147211763699

--------------------------------
INTERNAL COORDINATES (ANGSTROEM)
--------------------------------
 C      0   0   0   0.000000     0.000     0.000
 N      1   0   0   1.493571     0.000     0.000
 C      2   1   0   1.493592   114.022     0.000
 C      3   2   1   1.524606   112.310   175.895
 O      4   3   2   1.187615   120.944   154.879
 H      1   2   3   1.088611   108.878   179.363
 H      1   2   3   1.088086   108.550    59.253
 H      1   2   3   1.088130   108.534   299.496
 H      2   1   3   1.023283   109.045   122.627
 H      2   1   3   1.023047   108.967   237.697
 H      3   2   1   1.089890   108.823   298.157
 H      3   2   1   1.093569   107.546    55.917
 H      4   3   2   1.113125   116.648   333.051

---------------------------
INTERNAL COORDINATES (A.U.)
---------------------------
 C      0   0   0   0.000000     0.000     0.000
 N      1   0   0   2.822441     0.000     0.000
 C      2   1   0   2.822479   114.022     0.000
 C      3   2   1   2.881087   112.310   175.895
 O      4   3   2   2.244268   120.944   154.879
 H      1   2   3   2.057177   108.878   179.363
 H      1   2   3   2.056184   108.550    59.253
 H      1   2   3   2.056267   108.534   299.496
 H      2   1   3   1.933725   109.045   122.627
 H      2   1   3   1.933279   108.967   237.697
 H      3   2   1   2.059593   108.823   298.157
 H      3   2   1   2.066547   107.546    55.917
 H      4   3   2   2.103501   116.648   333.051



           ************************************************************
           *        Program running with 8 parallel MPI-processes     *
           *              working on a common directory               *
           ************************************************************
           ************************************************************
           *              Shut down parallel processing               *
           ************************************************************


           ************************************************************
           *        Program running with 8 parallel MPI-processes     *
           *              working on a common directory               *
           ************************************************************

Diagonalization of the overlap matrix:
Smallest eigenvalue                        ... 4.720e-04
Time for diagonalization                   ...    0.013 sec
Threshold for overlap eigenvalues          ... 1.000e-08
Number of eigenvalues below threshold      ... 0
[...]
     20       0.038785   0.030821  -0.004523   0.084771  -0.249929   0.170557
     21       0.083141  -0.097385   0.379138   0.346450  -0.016470  -0.397782
     22      -0.285273  -0.060666   0.701294   0.026737  -0.407026  -0.275963
     23      -0.048006   0.007122   0.011911  -0.054201   0.041049  -0.011403
     24      -0.044152   0.260097   0.006589   0.145019   0.004319  -0.053776
     25      -0.379520   0.616354   0.016464  -0.102199   0.034300   0.037721
     26      -0.049933   0.005973  -0.002600  -0.054290   0.161444  -0.121128
     27      -0.295674   0.321421   0.032443  -0.250960  -0.060712   0.187110
     28      -0.216794   0.587092   0.071552   0.083217   0.072273  -0.082652
     29       0.039632   0.022559   0.006516   0.073265  -0.117193   0.026927
     30      -0.064022   0.053571   0.004778  -0.101761  -0.165795   0.204090
     31       0.091321  -0.041891  -0.000372   0.093038   0.052394  -0.111924
     32       0.041266   0.025930   0.002784   0.064299  -0.205986   0.156525
     33       0.245579  -0.023111  -0.002871   0.339514  -0.081770  -0.088541
     34      -0.080487  -0.007545   0.002957  -0.140454   0.007415   0.040598
     35      -0.049899   0.010752   0.000533  -0.071634   0.107129  -0.016736
     36       0.056901   0.052238   0.005033   0.079609  -0.217410   0.180447
     37      -0.011411  -0.006938   0.000589  -0.038173   0.065617  -0.092821
     38      -0.009424  -0.030928  -0.003796  -0.021187   0.146164  -0.144647
                 18         19         20         21         22         23    
      0       0.096314  -0.033935  -0.059652  -0.007767   0.019784   0.063120
      1      -0.041623   0.040224   0.031724   0.006137  -0.004767  -0.019757
      2      -0.052521  -0.013662   0.022187   0.007715  -0.002123  -0.078243
      3      -0.020813   0.066826   0.023642   0.012118   0.011067  -0.041660
      4       0.004715  -0.008546  -0.012401  -0.008126  -0.009689   0.017214
      5       0.018656  -0.112531  -0.011363   0.009829   0.036844   0.030457
      6      -0.089688   0.060260   0.082367   0.052564  -0.017188  -0.012493
      7       0.035403  -0.045459  -0.029819  -0.027456   0.009807   0.004251
      8       0.312334   0.067990  -0.609646   0.018504  -0.021069   0.013153
      9       0.025702  -0.045096  -0.002858   0.003357   0.002320  -0.001907
     10      -0.005370   0.000649   0.000016  -0.000174  -0.000108  -0.000137
     11      -0.668370   0.046744  -0.061555  -0.035542   0.009161  -0.016740
     12      -0.010693  -0.042890  -0.022543   0.002633   0.002902  -0.002105
     13      -0.001431   0.000144   0.001792   0.000283  -0.000174  -0.000125
     14       0.315915   0.039018   0.442326  -0.049958   0.013543  -0.021013
     15       0.158181  -0.086377  -0.107167  -0.019666   0.030077   0.113578
     16      -0.022580   0.138509   0.055166  -0.007247  -0.044339  -0.065078
     17      -0.005374  -0.127903  -0.024756  -0.009004  -0.001012  -0.041213
     18       0.050037  -0.058798  -0.070714  -0.061499  -0.064803   0.071235
     19       0.029798   0.116944   0.035243   0.016515   0.008228  -0.033198
     20      -0.195543  -0.331319   0.049681   0.039851   0.025677  -0.224418
     21       0.249373  -0.008363  -0.167464  -0.287199  -0.502075  -0.318252
     22      -0.094004   0.087316   0.101697   0.143828   0.248372   0.166003
     23      -0.024213   0.379912   0.158276   0.177360   0.288521   0.259787
     24       0.032931   0.097879   0.051973   0.048634   0.113220   0.086684
     25      -0.017261  -0.079420  -0.043059  -0.022558  -0.052970  -0.042531
     26       0.153443   0.141519  -0.057529  -0.028292   0.022065   0.145945
     27      -0.096112  -0.067732   0.002234  -0.033045  -0.100772  -0.180606
     28       0.038208   0.013110   0.016499   0.015340   0.038469   0.081764
     29      -0.014648  -0.491991  -0.058658  -0.007760   0.141298  -0.013620
     30      -0.180180  -0.016162   0.170447   0.032906  -0.133663  -0.050072
     31       0.103581  -0.000964  -0.098496  -0.017574   0.082239   0.007187
     32      -0.295148  -0.321851   0.381212   0.071266  -0.492559   0.706603
     33      -0.041234   0.049540   0.079007   0.141529   0.204177   0.160068
     34       0.005177  -0.052661  -0.033329  -0.072881  -0.100949  -0.089076
     35      -0.088356   0.491107   0.221053  -0.065546  -0.392591   0.224731
     36      -0.099268   0.065836  -0.165645  -0.605642   0.195421   0.149127
     37       0.052382  -0.051710   0.087244   0.309098  -0.100423  -0.075902
     38       0.064631   0.000618   0.201452   0.589569  -0.151146  -0.172460
                 24         25         26         27         28         29    
      0      -0.000886   0.017059  -0.125267   0.026448   0.010573   0.026798
      1      -0.011413  -0.014237   0.061610  -0.011470  -0.001389  -0.008616
      2       0.121009   0.145865  -0.266614  -0.070767  -0.036471  -0.042300
      3       0.166649   0.054058   0.174562  -0.007882  -0.010895  -0.009169
      4      -0.072922  -0.028266  -0.089424   0.008500   0.003159   0.003277
      5      -0.180925   0.077966   0.178077  -0.119450   0.035703   0.000594
      6      -0.196343  -0.078128  -0.038548  -0.007149  -0.020749   0.015198
      7       0.099204   0.043500   0.019525   0.002835   0.011174  -0.008596
      8       0.024937  -0.089208   0.027765   0.040690  -0.015548   0.020982
      9       0.002912   0.005578  -0.000069  -0.000904  -0.000221  -0.000801
     10       0.000078  -0.000032  -0.000033   0.000032   0.000016   0.000018
     11       0.012092  -0.106996   0.016564   0.035746  -0.018908   0.025258
     12       0.007098   0.005863   0.000556  -0.000415  -0.000051  -0.001481
     13      -0.000027  -0.000017  -0.000064   0.000044   0.000052  -0.000011
     14       0.015678  -0.108019   0.013484   0.039471  -0.017810   0.025506
     15      -0.212097  -0.087537  -0.101046  -0.102875  -0.137755  -0.334619
     16       0.096253   0.042556   0.084911   0.042634   0.062144   0.154198
     17      -0.087352   0.047586  -0.262657  -0.184910  -0.161462  -0.354868
     18      -0.183380  -0.113727  -0.661142   0.013155   0.163049   0.308065
     19       0.065697   0.046530   0.317531  -0.014168  -0.087207  -0.154557
     20       0.223238   0.181509   0.007113   0.142933   0.473951   0.379158
     21       0.027700   0.047128   0.041054  -0.094791  -0.090269   0.015163
     22      -0.033590  -0.033795  -0.005400   0.040701   0.051080  -0.013533
     23       0.161430   0.277513  -0.122067  -0.039211  -0.213034  -0.018879
     24       0.270300   0.126100   0.097906   0.002424   0.079756   0.057653
     25      -0.138840  -0.070612  -0.045719   0.008202  -0.047063  -0.034966
     26       0.044937   0.149979   0.135337  -0.254744   0.231282   0.153528
     27       0.007060   0.022002   0.279648  -0.012137  -0.081530  -0.081385
     28      -0.020341  -0.021055  -0.145047  -0.031839   0.050012   0.039970
     29      -0.118985   0.263766   0.157021   0.801673  -0.296510  -0.072067
     30      -0.144200  -0.068095   0.039893  -0.035031  -0.050362  -0.005646
     31       0.054682   0.039087  -0.022772   0.017573   0.027667   0.003279
     32       0.556387  -0.196535   0.096949  -0.062662  -0.062953  -0.024346
     33       0.072029  -0.007944  -0.123531   0.043288   0.013823   0.081593
     34      -0.025753  -0.013754   0.064183  -0.031378  -0.010878  -0.041745
     35      -0.483087   0.747676   0.025167   0.355493   0.156811  -0.042883
     36       0.049625  -0.100959  -0.054502   0.082887   0.379376  -0.380762
     37      -0.031391   0.055789   0.029560  -0.048014  -0.207260   0.206869
     38       0.085561  -0.240597  -0.076750   0.207246   0.503617  -0.479693
                 30         31         32         33         34         35    
      0       0.016528  -0.112292   0.029962  -0.091850   0.004606  -0.004787
      1      -0.006575   0.055268  -0.013731   0.048153  -0.002456   0.002993
      2       0.011984   0.014704  -0.026607  -0.085567  -0.003852  -0.002460
      3      -0.033676   0.070055   0.010650   0.015514   0.019223  -0.072871
      4       0.016669  -0.034680  -0.005940  -0.006561  -0.015188   0.030731
      5       0.034986   0.050441   0.055329  -0.027502   0.023486   0.000994
      6       0.030535  -0.034728  -0.043591   0.001768   0.014266   0.020533
      7      -0.015271   0.018046   0.021514  -0.001439  -0.005956  -0.010690
      8      -0.022771  -0.005694   0.005796  -0.002251   0.003946   0.002615
      9      -0.001213   0.001174  -0.002214  -0.001141   0.003543   0.000052
     10      -0.000017   0.000131   0.000001   0.000041   0.000037  -0.000028
     11      -0.019182  -0.008526   0.002114  -0.001631   0.004071   0.003675
     12      -0.001719   0.002318  -0.002368  -0.000695   0.004084  -0.000598
     13      -0.000001   0.000064   0.000011   0.000008   0.000003  -0.000023
     14      -0.025225  -0.007260   0.004534  -0.003360   0.000104   0.004224
     15      -0.373613  -0.151642  -0.057687   0.371968   0.014043   0.015139
     16       0.191539   0.051453   0.029513  -0.177980  -0.009943  -0.010072
     17      -0.338616   0.001923  -0.098621   0.364126   0.001252   0.014555
     18       0.066809   0.623948   0.050375   0.300886   0.030645   0.034006
     19      -0.019444  -0.294391  -0.028165  -0.145998  -0.013945  -0.012578
     20      -0.234747  -0.494546   0.136296   0.388243   0.007539   0.008098
     21       0.256260   0.016514   0.096295   0.266098  -0.038126  -0.001076
     22      -0.142376  -0.014982  -0.056895  -0.152445   0.015645   0.001601
     23       0.510320  -0.238118   0.299014   0.529468   0.013099   0.019940
     24      -0.073874   0.140990  -0.234241   0.025403   0.403531   0.606522
     25       0.027471  -0.062393   0.149708  -0.018655  -0.169325  -0.275816
     26       0.155938  -0.103197  -0.790195   0.153295  -0.354131  -0.139786
     27       0.075766  -0.075567   0.085450  -0.045799  -0.509728   0.577269
     28      -0.034506   0.021487  -0.026566   0.010965   0.224250  -0.243435
     29       0.200820   0.147831  -0.285476   0.103771  -0.020740  -0.066431
     30       0.053113  -0.105663  -0.088488  -0.019919   0.054303  -0.311563
     31      -0.026912   0.053887   0.044594   0.009389  -0.028108   0.159305
     32       0.041257  -0.011695   0.013943   0.000397  -0.008779   0.034908
     33      -0.219910   0.256224   0.184603  -0.011752  -0.533513  -0.068974
     34       0.121327  -0.135224  -0.098618   0.006967   0.280240   0.036717
     35      -0.270599   0.011871   0.082931  -0.053441  -0.004359   0.011971
     36       0.164355   0.022783   0.042071  -0.004443  -0.020184  -0.017474
     37      -0.088217  -0.014086  -0.023952   0.001692   0.011978   0.009671
     38       0.206949   0.094474   0.024098   0.015482  -0.011529  -0.009745
                  36         37         38    
      0       0.001444   0.052810  -0.075427
      1       0.001025  -0.020365   0.088358
      2      -0.010200  -0.065083   0.039499
      3      -0.045934   0.002917  -0.038626
      4       0.023936  -0.002030  -0.022766
      5       0.006431  -0.003793  -0.014653
      6      -0.066424  -0.004086   0.035710
      7       0.033669   0.002402  -0.047829
      8       0.011416   0.001843   0.022391
      9      -0.002820   0.000598   0.520906
     10       0.000014   0.000048  -0.453980
     11       0.002555   0.002110  -0.018503
     12      -0.002844   0.000417  -0.334636
     13       0.000030   0.000039   0.291157
     14       0.001686   0.001646  -0.024069
     15       0.006907  -0.585634  -0.092148
     16      -0.001057   0.233188   0.186378
     17      -0.013506   0.767821   0.014535
     18      -0.022065  -0.003299  -0.095551
     19       0.010461  -0.005508   0.093977
     20      -0.022605  -0.022217   0.134485
     21       0.071543  -0.049525  -0.042707
     22      -0.040487   0.009296   0.089970
     23       0.051372   0.013262   0.000985
     24       0.332209  -0.003358   0.017061
     25      -0.152936   0.004958   0.053050
     26      -0.065172   0.007333  -0.100028
     27       0.056211   0.020649  -0.036619
     28      -0.022982  -0.008318   0.067112
     29      -0.018820  -0.017905   0.024253
     30       0.770272   0.016002   0.007004
     31      -0.391989  -0.007701  -0.060320
     32      -0.100368  -0.008908   0.114995
     33       0.250558  -0.025572   0.061931
     34      -0.132741   0.013239  -0.073480
     35      -0.008809   0.014334  -0.017374
     36       0.025674  -0.004143   0.295431
     37      -0.014930   0.001915   0.264970
     38       0.016837   0.001272  -0.103197


-----------
IR SPECTRUM
-----------

 Mode    freq (cm**-1)   T**2         TX         TY         TZ
-------------------------------------------------------------------
  25:       407.59    1.710393  ( -0.484051  -0.492595   1.110603)
  26:       657.55   30.496707  ( -3.643505   2.975371  -2.892878)
  27:       945.73   16.896248  ( -1.763239  -0.928444   3.595167)
  28:      1086.16    2.775436  (  1.588830  -0.333107  -0.374292)
  29:      1107.38   27.412582  (  2.048694  -4.665443  -1.203777)
  30:      1161.14    4.317062  ( -0.083805  -0.303570   2.053749)
  31:      1245.34   43.158449  (  2.167426  -5.751089  -2.320710)
  32:      1351.94   31.490872  ( -0.733337   1.397737  -5.385111)
  33:      1503.27   16.180385  ( -0.146328  -3.254213   2.359888)
  34:      1587.99    9.894281  (  1.685258   0.110846  -2.653658)
  35:      2056.94  104.603723  (  6.713492  -7.447597  -2.016444)
  36:      2103.32   96.122308  (  6.563069  -7.274703   0.356554)
  37:      3141.31    1.451525  (  0.375345   0.758377  -0.857616)
  38:     32192.04  3639.865368  ( 47.494685 -18.961530 -32.009071)

The first frequency considered to be a vibration is 25
The total number of vibrations considered is 14


--------------------------
THERMOCHEMISTRY AT 298.15K
--------------------------

Temperature         ... 298.15 K
Pressure            ... 1.00 atm
Total Mass          ... 74.10 AMU

Throughout the following assumptions are being made:
  (1) The electronic state is orbitally nondegenerate
  (2) There are no thermally accessible electronically excited states
  (3) Hindered rotations indicated by low frequency modes) are not
      treated as such but are treated as vibrations and this may
      case some error
  (4) All equations used are the standard statistical mechanics
      equations for an ideal gas
  (5) All vibrations are strinctly harmonic


------------
INNER ENERGY
------------

The inner energy is: U= E(el) + E(ZPE) + E(vib) + E(rot) + E(trans)
    E(el)   - is the total energy from the electronic structure calculation
              = E(kin-el) + E(nuc-el) + E(el-el) + E(nuc-nuc)
    E(ZPE)  - the the zero temperature vibrational energy from the frequency calculation
    E(vib)  - the the finite temperature correction to E(ZPE) due to population
              of excietd vibrational states
    E(rot)  - is the rotational thermal energy
    E(trans)- is the translational thermal energy

Summary of contributions to the inner energy U:
Electronic energy                ...   -248.63700512 Eh
Zero point energy                ...      0.11515616 Eh      72.26 kcal/mol
Thermal vibrational correction   ...      0.00058063 Eh       0.36 kcal/mol
Thermal rotational correction    ...      0.00141627 Eh       0.89 kcal/mol
Thermal translational correction ...      0.00141627 Eh       0.89 kcal/mol
-----------------------------------------------------------------------
Total thermal energy                   -248.51843578 Eh


Summary of corrections to the electronic energy:
(perhaps to be used in another calculation)
Total thermal correction                  0.00341318 Eh       2.14 kcal/mol
Non-thermal (ZPE) correction              0.11515616 Eh      72.26 kcal/mol
-----------------------------------------------------------------------
Total correction                          0.11856934 Eh      74.40 kcal/mol


--------
ENTHALPY
--------

The enthalpy is H = U + kB*T
                kB is Boltzmann's constant
Total free energy                 ...   -248.51843578 Eh 
Thermal Enthalpy correction       ...      0.00094421 Eh       0.59 kcal/mol
-----------------------------------------------------------------------
Total Enthalpy                    ...   -248.51749157 Eh


-------
ENTROPY
-------

The entropy contributions are T*S = T*(S(el)+S(vib)+S(rot)+S(trans)
     S(el)   - electronic entropy
     S(vib)  - vibrational entropy
     S(rot)  - rotational entropy
     S(trans)- translational entropy
The entropies will be listed as mutliplied by the temperature to get
units of energy

Electronic entropy                ...      0.00000000 Eh      0.00 kcal/mol
Vibrational entropy               ...      0.00079111 Eh      0.50 kcal/mol
Rotational entropy                ...      0.01110792 Eh      6.97 kcal/mol
Translational entropy             ...      0.01844677 Eh     11.58 kcal/mol
-----------------------------------------------------------------------
Final entropy term                ...      0.03034580 Eh     19.04 kcal/mol


CAUTION: The rotational entropy is not quite correctly treated here
         because it includes a symmetry number that is not yet correctly
         implemented in ORCA!
For a nonlinear molecule the correct rotational entropy is:
    S(rot) = R*(ln(qrot/sn)+1.5)
    R    = 8.31441 J/mol/K = 1.987191683e-3 kcal/mol/K
    qrot = 86096.4537707
    sn is the rotational symmetry number. We have assumed 3 here
       if it is different for your molecule then you should correct
       the printed rotational entropy by manually evaluating the equation
       as given above

For convenience we print out the resulting values for sn=1 - 12:
 sn= 1  qrot/sn=   86096.4538 T*S(rot)=     7.62 kcal/mol T*S(tot)=    19.69 kcal/mol
 sn= 2  qrot/sn=   43048.2269 T*S(rot)=     7.21 kcal/mol T*S(tot)=    19.28 kcal/mol
 sn= 3  qrot/sn=   28698.8179 T*S(rot)=     6.97 kcal/mol T*S(tot)=    19.04 kcal/mol
 sn= 4  qrot/sn=   21524.1134 T*S(rot)=     6.80 kcal/mol T*S(tot)=    18.87 kcal/mol
 sn= 5  qrot/sn=   17219.2908 T*S(rot)=     6.67 kcal/mol T*S(tot)=    18.74 kcal/mol
 sn= 6  qrot/sn=   14349.4090 T*S(rot)=     6.56 kcal/mol T*S(tot)=    18.63 kcal/mol
 sn= 7  qrot/sn=   12299.4934 T*S(rot)=     6.47 kcal/mol T*S(tot)=    18.54 kcal/mol
 sn= 8  qrot/sn=   10762.0567 T*S(rot)=     6.39 kcal/mol T*S(tot)=    18.46 kcal/mol
 sn= 9  qrot/sn=    9566.2726 T*S(rot)=     6.32 kcal/mol T*S(tot)=    18.39 kcal/mol
 sn=10  qrot/sn=    8609.6454 T*S(rot)=     6.26 kcal/mol T*S(tot)=    18.33 kcal/mol
 sn=11  qrot/sn=    7826.9503 T*S(rot)=     6.20 kcal/mol T*S(tot)=    18.27 kcal/mol
 sn=12  qrot/sn=    7174.7045 T*S(rot)=     6.15 kcal/mol T*S(tot)=    18.22 kcal/mol


-------------------
GIBBS FREE ENTHALPY
-------------------

The Gibbs free enthalpy is G = H - T*S

Total enthalpy                    ...   -248.51749157 Eh 
Total entropy correction          ...     -0.03034580 Eh    -19.04 kcal/mol
-----------------------------------------------------------------------
Final Gibbs free enthalpy         ...   -248.54783737 Eh

For completeness - the Gibbs free enthalpy minus the electronic energy
G-E(el)                           ...      0.08916775 Eh     55.95 kcal/mol


Timings for individual modules:

Sum of individual times         ...      879.127 sec (=  14.652 min)
GTO integral calculation        ...       16.576 sec (=   0.276 min)   1.9 %
SCF iterations                  ...      186.305 sec (=   3.105 min)  21.2 %
SCF Gradient evaluation         ...      122.627 sec (=   2.044 min)  13.9 %
Geometry relaxation             ...        0.491 sec (=   0.008 min)   0.1 %
Analytical frequency calculation...      553.128 sec (=   9.219 min)  62.9 %
                             ****ORCA TERMINATED NORMALLY****
TOTAL RUN TIME: 0 days 0 hours 14 minutes 40 seconds 799 msec
