
                                 *****************
                                 * O   R   C   A *
                                 *****************

           --- An Ab Initio, DFT and Semiempirical electronic structure package ---

                  #######################################################
                  #                        -***-                        #
                  #  Department of molecular theory and spectroscopy    #
                  #              Directorship: Frank Neese              #
                  # Max Planck Institute for Chemical Energy Conversion #
                  #                  D-45470 Muelheim/Ruhr              #
                  #                       Germany                       #
                  #                                                     #
                  #                  All rights reserved                #
                  #                        -***-                        #
                  #######################################################


                         Program Version 3.0.3 - RELEASE   -


 With contributions from (in alphabetic order):
   Ute Becker             : Parallelization
   Dmytro Bykov           : SCF Hessian
   Dmitry Ganyushin       : Spin-Orbit,Spin-Spin,Magnetic field MRCI
   Andreas Hansen         : Spin unrestricted coupled pair/coupled cluster methods
   Dimitrios Liakos       : Extrapolation schemes; parallel MDCI
   Robert Izsak           : Overlap fitted RIJCOSX, COSX-SCS-MP3
   Christian Kollmar      : KDIIS, OOCD, Brueckner-CCSD(T), CCSD density
   Simone Kossmann        : Meta GGA functionals, TD-DFT gradient, OOMP2, MP2 Hessian
   Taras Petrenko         : DFT Hessian,TD-DFT gradient, ASA and ECA modules, normal mode analysis, Resonance Raman, ABS, FL, XAS/XES, NRVS
   Christoph Reimann      : Effective Core Potentials
   Michael Roemelt        : Restricted open shell CIS
   Christoph Riplinger    : Improved optimizer, TS searches, QM/MM, DLPNO-CCSD
   Barbara Sandhoefer     : DKH picture change effects
   Igor Schapiro          : Molecular dynamics
   Kantharuban Sivalingam : CASSCF convergence, NEVPT2
   Boris Wezisla          : Elementary symmetry handling
   Frank Wennmohs         : Technical directorship


 We gratefully acknowledge several colleagues who have allowed us to
 interface, adapt or use parts of their codes:
   Stefan Grimme, W. Hujo, H. Kruse, T. Risthaus : VdW corrections, initial TS optimization,
                                                   DFT functionals, gCP
   Ed Valeev                                     : LibInt (2-el integral package), F12 methods
   Garnet Chan, S. Sharma, R. Olivares           : DMRG
   Ulf Ekstrom                                   : XCFun DFT Library
   Mihaly Kallay                                 : mrcc  (arbitrary order and MRCC methods)
   Andreas Klamt, Michael Diedenhofen            : otool_cosmo (COSMO solvation model)
   Frank Weinhold                                : gennbo (NPA and NBO analysis)
   Christopher J. Cramer and Donald G. Truhlar   : smd solvation model


 Your calculation uses the libint2 library for the computation of 2-el integrals
 For citations please refer to: http://libint.valeyev.net

 This ORCA versions uses:
   CBLAS   interface :  Fast vector & matrix operations
   LAPACKE interface :  Fast linear algebra routines
   SCALAPACK package :  Parallel linear algebra routines


Your calculation utilizes the basis: Ahlrichs-TZV
Cite in your paper:
H - Kr: A. Schaefer, H. Horn and R. Ahlrichs, J. Chem. Phys. 97, 2571 (1992).

The def2-TZV basis will be loaded
Cite in your paper:
 	F. Weigend, R. Ahlrichs, Phys. Chem. Chem. Phys. 2005, 7, 3297.

================================================================================
                                        WARNINGS
                       Please study these warnings very carefully!
================================================================================
Now building the actual basis set
WARNING: Geometry optimizations can change the point-group symmetry!

WARNING: Geometry Optimization
  ===> : Switching off AutoStart
         For restart on a previous wavefunction, please use MOREAD


INFO   : the flag for use of LIBINT has been found!

================================================================================
                                       INPUT FILE
================================================================================
NAME = 0452_+.inp
|  1> ! NORI PBE0 def2-TZVP UseSym TightOPT Freq TightSCF Grid3 FinalGrid5 XYZFile
|  2> % pal
|  3>     nprocs 8
|  4> end
|  5> %method
|  6>     SymThresh 5.0e-2
|  7> end
|  8> % geom 
|  9>     MaxIter 10
| 10> end 
| 11> % maxcore 2000
| 12> % output
| 13>     printlevel mini
| 14>     print[ P_Basis ] 0
| 15>     print[ P_SCFInfo ] 1
| 16>     print[ P_SCFIterInfo ] 1
| 17>     print[ P_OrbEn ] 0
| 18>     print[ P_Cartesian ] 0
| 19> end
| 20> % elprop
| 21>     Dipole false
| 22> end
| 23> *xyz 1 1
| 24>  C        1.1034670208     0.3358273354    -0.1368079496 
| 25>  C        2.4722358350    -0.3017434475     0.0963293293 
| 26>  C        2.9106237113    -0.2338793783     1.4763355776 
| 27>  C        3.2654207267    -0.1553274956     2.6245438773 
| 28>  C        3.7076742162    -0.0416801654     3.9879175665 
| 29>  N        3.4564523218    -1.3515351817     4.7180886749 
| 30>  H        0.8393645764     0.2591987996    -1.1918895134 
| 31>  H        1.1110696070     1.3910835498     0.1375980379 
| 32>  H        0.3304479741    -0.1667479276     0.4453653021 
| 33>  H        3.2337609957     0.1865493798    -0.5209431136 
| 34>  H        2.4642082975    -1.3533638393    -0.2091311828 
| 35>  H        3.1689466185     0.7283035097     4.5450533848 
| 36>  H        4.7793301099     0.1544730449     4.0702481077 
| 37>  H        2.4601620843    -1.5800082522     4.6914105060 
| 38>  H        3.7585486643    -1.3126846956     5.6943041629 
| 39>  H        3.9545072404    -2.1122852361     4.2506272323 
| 40> *
| 41> 
| 42>                          ****END OF INPUT****
================================================================================

The point group is C1 - hence turning off symmetry
If this is a round-off problem, please increase the symmetry
        detection tolerance (%method SymThresh)


                       *****************************
                       * Geometry Optimization Run *
                       *****************************

Geometry optimization settings:
Update method            Update   .... BFGS
Choice of coordinates    CoordSys .... Redundant Internals
Initial Hessian          InHess   .... Almoef's Model

Convergence Tolerances:
Energy Change            TolE     ....  1.0000e-06 Eh
Max. Gradient            TolMAXG  ....  1.0000e-04 Eh/bohr
RMS Gradient             TolRMSG  ....  3.0000e-05 Eh/bohr
Max. Displacement        TolMAXD  ....  1.0000e-03 bohr
RMS Displacement         TolRMSD  ....  6.0000e-04 bohr

------------------------------------------------------------------------------
                        ORCA OPTIMIZATION COORDINATE SETUP
------------------------------------------------------------------------------

The optimization will be done in new redundant internal coordinates
Making redundant internal coordinates   ...  (new redundants) done
Evaluating the initial hessian          ...  (Almloef) done
Evaluating the coordinates              ...  done
Calculating the B-matrix                .... done
Calculating the G-matrix                .... done
Diagonalizing the G-matrix              .... done
Small eigenvalue found = 2.324e-02
Small eigenvalue found = 2.882e-02
The first mode is                       ....   28
The number of degrees of freedom        ....   42

    -----------------------------------------------------------------
                    Redundant Internal Coordinates


    -----------------------------------------------------------------
         Definition                    Initial Value    Approx d2E/dq
    -----------------------------------------------------------------
      1. B(C   1,C   0)                  1.5279         0.376514   
      2. B(C   2,C   1)                  1.4496         0.502023   
      3. B(C   3,C   2)                  1.2043         1.235800   
      4. B(C   4,C   3)                  1.4378         0.524160   
      5. B(N   5,C   4)                  1.5205         0.346448   
      6. B(H   6,C   0)                  1.0903         0.359664   
      7. B(H   7,C   0)                  1.0904         0.359602   
      8. B(H   8,C   0)                  1.0904         0.359514   
      9. B(H   9,C   1)                  1.0952         0.353338   
     10. B(H  10,C   1)                  1.0951         0.353397   
     11. B(H  11,C   4)                  1.0925         0.356840   
     12. B(H  12,C   4)                  1.0926         0.356721   
     13. B(H  13,N   5)                  1.0225         0.413287   
     14. B(H  14,N   5)                  1.0226         0.413093   
     15. B(H  15,N   5)                  1.0224         0.413426   
     16. A(C   1,C   0,H   8)          111.1795         0.324650   
     17. A(H   6,C   0,H   7)          108.2541         0.290721   
     18. A(H   6,C   0,H   8)          108.2114         0.290710   
     19. A(C   1,C   0,H   7)          111.0515         0.324663   
     20. A(C   1,C   0,H   6)          109.5926         0.324672   
     21. A(H   7,C   0,H   8)          108.4592         0.290702   
     22. A(C   2,C   1,H   9)          107.7837         0.339520   
     23. A(C   0,C   1,H   9)          110.5415         0.323727   
     24. A(C   0,C   1,C   2)          113.3701         0.382851   
     25. A(H   9,C   1,H  10)          106.0239         0.289122   
     26. A(C   2,C   1,H  10)          108.2234         0.339530   
     27. A(C   0,C   1,H  10)          110.5847         0.323736   
     28. L(C   1,C   2,C   3,C   0, 2) 181.2398         0.473552   
     29. L(C   1,C   2,C   3,C   0, 1) 179.0943         0.473552   
     30. L(C   2,C   3,C   4,N   5, 2) 179.1366         0.477326   
     31. L(C   2,C   3,C   4,N   5, 1) 181.0066         0.477326   
     32. A(C   3,C   4,N   5)          109.6601         0.377802   
     33. A(H  11,C   4,H  12)          108.5856         0.289995   
     34. A(N   5,C   4,H  12)          106.2920         0.317945   
     35. A(C   3,C   4,H  12)          112.7895         0.342525   
     36. A(N   5,C   4,H  11)          106.3071         0.317962   
     37. A(C   3,C   4,H  11)          112.8055         0.342544   
     38. A(H  14,N   5,H  15)          108.7129         0.298843   
     39. A(H  13,N   5,H  15)          107.2452         0.298865   
     40. A(C   4,N   5,H  15)          109.9342         0.322960   
     41. A(H  13,N   5,H  14)          108.7376         0.298827   
     42. A(C   4,N   5,H  14)          112.1406         0.322918   
     43. A(C   4,N   5,H  13)          109.9344         0.322942   
     44. D(H   9,C   1,C   0,H   8)    177.9022         0.011310   
     45. D(H  10,C   1,C   0,H   7)   -178.3396         0.011310   
     46. D(C   2,C   1,C   0,H   7)     59.9116         0.011310   
     47. D(H  10,C   1,C   0,H   6)    -58.7847         0.011310   
     48. D(C   2,C   1,C   0,H   6)    179.4665         0.011310   
     49. D(H   9,C   1,C   0,H   7)    -61.2350         0.011310   
     50. D(H  10,C   1,C   0,H   8)     60.7977         0.011310   
     51. D(H   9,C   1,C   0,H   6)     58.3199         0.011310   
     52. D(C   2,C   1,C   0,H   8)    -60.9511         0.011310   
     53. D(H  11,C   4,C   1,H   9)    103.2721         0.001500   
     54. D(N   5,C   4,C   1,H  10)    -23.5760         0.001500   
     55. D(N   5,C   4,C   1,H   9)   -138.0756         0.001500   
     56. D(N   5,C   4,C   1,C   0)     99.8648         0.001500   
     57. D(H  11,C   4,C   1,H  10)   -142.2284         0.001500   
     58. D(H  12,C   4,C   1,H  10)     94.9885         0.001500   
     59. D(H  12,C   4,C   1,H   9)    -19.5110         0.001500   
     60. D(H  12,C   4,C   1,C   0)   -141.5706         0.001500   
     61. D(H  11,C   4,C   1,C   0)    -18.7875         0.001500   
     62. D(H  15,N   5,C   4,H  11)   -178.8626         0.011077   
     63. D(H  15,N   5,C   4,C   3)     58.9039         0.011077   
     64. D(H  14,N   5,C   4,H  12)     57.7636         0.011077   
     65. D(H  14,N   5,C   4,H  11)    -57.7979         0.011077   
     66. D(H  14,N   5,C   4,C   3)    179.9686         0.011077   
     67. D(H  13,N   5,C   4,H  12)    178.8599         0.011077   
     68. D(H  13,N   5,C   4,H  11)     63.2985         0.011077   
     69. D(H  15,N   5,C   4,H  12)    -63.3012         0.011077   
     70. D(H  13,N   5,C   4,C   3)    -58.9350         0.011077   
    -----------------------------------------------------------------

Number of atoms                         .... 16
Number of degrees of freedom            .... 70

         *************************************************************
         *                GEOMETRY OPTIMIZATION CYCLE   1            *
         *************************************************************


           ************************************************************
           *        Program running with 8 parallel MPI-processes     *
           *              working on a common directory               *
           ************************************************************
           ************************************************************
           *              Shut down parallel processing               *
           ************************************************************


           ************************************************************
           *        Program running with 8 parallel MPI-processes     *
           *              working on a common directory               *
           ************************************************************
------------
SCF SETTINGS
------------
Hamiltonian:
 Density Functional     Method          .... DFT(GTOs)
 Exchange Functional    Exchange        .... PBE
   PBE kappa parameter  XKappa          ....  0.804000
 Correlation Functional Correlation     .... PBE
 LDA part of GGA corr.  LDAOpt          .... PW91-LDA
 Gradients option       PostSCFGGA      .... off
 Hybrid DFT is turned on
   Fraction HF Exchange ScalHFX         ....  0.250000
   Scaling of DF-GGA-X  ScalDFX         ....  0.750000
   Scaling of DF-GGA-C  ScalDFC         ....  1.000000
   Scaling of DF-LDA-C  ScalLDAC        ....  1.000000
   Perturbative correction              ....  0.000000
   NL short-range parameter             ....  6.900000


General Settings:
 Integral files         IntName         .... 0452_+
 Hartree-Fock type      HFTyp           .... RHF
 Total Charge           Charge          ....    1
 Multiplicity           Mult            ....    1
 Number of Electrons    NEL             ....   46
 Basis Dimension        Dim             ....  246
 Nuclear Repulsion      ENuc            ....    217.3396862121 Eh

Convergence Acceleration:
 DIIS                   CNVDIIS         .... on
   Start iteration      DIISMaxIt       ....    12
   Startup error        DIISStart       ....  0.200000
   # of expansion vecs  DIISMaxEq       ....     5
   Bias factor          DIISBfac        ....   1.050
   Max. coefficient     DIISMaxC        ....  10.000
 Newton-Raphson         CNVNR           .... off
 SOSCF                  CNVSOSCF        .... on
   Start iteration      SOSCFMaxIt      ....   150
   Startup grad/error   SOSCFStart      ....  0.003300
 Level Shifting         CNVShift        .... on
   Level shift para.    LevelShift      ....    0.2500
   Turn off err/grad.   ShiftErr        ....    0.0010
 Zerner damping         CNVZerner       .... off
 Static damping         CNVDamp         .... on
   Fraction old density DampFac         ....    0.7000
   Max. Damping (<1)    DampMax         ....    0.9800
   Min. Damping (>=0)   DampMin         ....    0.0000
   Turn off err/grad.   DampErr         ....    0.1000
 Fernandez-Rico         CNVRico         .... off

SCF Procedure:
 Maximum # iterations   MaxIter         ....   125
 SCF integral mode      SCFMode         .... Direct
   Integral package                     .... LIBINT
 Reset frequeny         DirectResetFreq ....    20
 Integral Threshold     Thresh          ....  2.500e-11 Eh
 Primitive CutOff       TCut            ....  2.500e-12 Eh

Convergence Tolerance:
 Convergence Check Mode ConvCheckMode   .... Total+1el-Energy
 Energy Change          TolE            ....  1.000e-08 Eh
 1-El. energy change                    ....  1.000e-05 Eh
 Orbital Gradient       TolG            ....  1.000e-05
 Orbital Rotation angle TolX            ....  1.000e-05
 DIIS Error             TolErr          ....  5.000e-07


Diagonalization of the overlap matrix:
Smallest eigenvalue                        ... 1.092e-05
Time for diagonalization                   ...    0.110 sec
Threshold for overlap eigenvalues          ... 1.000e-08
Number of eigenvalues below threshold      ... 0
Time for construction of square roots      ...    0.017 sec
Total time needed                          ...    0.127 sec

-------------------
DFT GRID GENERATION
-------------------

General Integration Accuracy     IntAcc      ...  4.340
Radial Grid Type                 RadialGrid  ... Gauss-Chebyshev
Angular Grid (max. acc.)         AngularGrid ... Lebedev-194
Angular grid pruning method      GridPruning ... 3 (G Style)
Weight generation scheme         WeightScheme... Becke
Basis function cutoff            BFCut       ...    1.0000e-11
Integration weight cutoff        WCut        ...    1.0000e-14
Grids for H and He will be reduced by one unit

# of grid points (after initial pruning)     ...  35004 (   0.0 sec)
# of grid points (after weights+screening)   ...  32707 (   0.1 sec)
nearest neighbour list constructed           ...    0.0 sec
Grid point re-assignment to atoms done       ...    0.0 sec
Grid point division into batches done        ...    0.0 sec
Reduced shell lists constructed in    0.1 sec

Total number of grid points                  ...    32707
Total number of batches                      ...      520
Average number of points per batch           ...       62
Average number of grid points per atom       ...     2044
Average number of shells per batch           ...    75.95 (71.66%)
Average number of basis functions per batch  ...   180.02 (73.18%)
Average number of large shells per batch     ...    62.55 (82.35%)
Average number of large basis fcns per batch ...   149.91 (83.28%)
Maximum spatial batch extension              ...   3.80,  3.57,  2.57 au
Average spatial batch extension              ...   0.17,  0.17,  0.16 au

Time for grid setup =    0.374 sec

Loading Hartree-Fock densities                     ... done
Calculating cut-offs                               ... done
Setting up the integral package                    ... done
Initializing the effective Hamiltonian             ... done
Starting the Coulomb interaction                   ... done (   0.0 sec)
Reading the grid                                   ... done
Mapping shells                                     ... done
Starting the XC term evaluation                    ... done (   0.1 sec)
  promolecular density results
     # of electrons  =     46.994936063
     EX              =    -35.060579267
     EC              =     -1.513013806
     EX+EC           =    -36.573593073
Transforming the Hamiltonian                       ... done (   0.0 sec)
Diagonalizing the Hamiltonian                      ... done (   0.0 sec)
Back transforming the eigenvectors                 ... done (   0.0 sec)
Now organizing SCF variables                       ... done
--------------
SCF ITERATIONS
--------------
ITER       Energy         Delta-E        Max-DP      RMS-DP      [F,P]     Damp
               ***  Starting incremental Fock matrix formation  ***
  0   -250.6180754375   0.000000000000 0.10281459  0.00128842  0.1583692 0.7000
  1   -250.6893490525  -0.071273615084 0.04873671  0.00094049  0.0834671 0.7000
                               ***Turning on DIIS***
  2   -250.7224465684  -0.033097515830 0.08502211  0.00185799  0.0378531 0.0000
  3   -250.7702382195  -0.047791651120 0.03039031  0.00063501  0.0465868 0.0000
  4   -250.7816535238  -0.011415304268 0.01413127  0.00026788  0.0100768 0.0000
  5   -250.7821023251  -0.000448801343 0.00568257  0.00011628  0.0045877 0.0000
                      *** Initiating the SOSCF procedure ***
                           *** Shutting down DIIS ***
                      *** Re-Reading the Fockian *** 
                      *** Removing any level shift *** 
ITER      Energy       Delta-E        Grad      Rot      Max-DP    RMS-DP
  6   -250.78216154  -0.0000592109  0.000288  0.000288  0.003178  0.000075
               *** Restarting incremental Fock matrix formation ***
  7   -250.78216504  -0.0000035050  0.000111  0.000243  0.000441  0.000012
  8   -250.78216479   0.0000002516  0.000141  0.000146  0.000180  0.000004
  9   -250.78216575  -0.0000009617  0.000050  0.000147  0.000073  0.000002
 10   -250.78216569   0.0000000588  0.000083  0.000081  0.000047  0.000001
 11   -250.78216577  -0.0000000789  0.000003  0.000005  0.000009  0.000000
 12   -250.78216577  -0.0000000001  0.000004  0.000003  0.000010  0.000000
                 **** Energy Check signals convergence ****
              ***Rediagonalizing the Fockian in SOSCF/NRSCF***

               *****************************************************
               *                     SUCCESS                       *
               *           SCF CONVERGED AFTER  13 CYCLES          *
               *****************************************************

Setting up the final grid:

General Integration Accuracy     IntAcc      ...  5.010
Radial Grid Type                 RadialGrid  ... Gauss-Chebyshev
Angular Grid (max. acc.)         AngularGrid ... Lebedev-434
Angular grid pruning method      GridPruning ... 3 (G Style)
Weight generation scheme         WeightScheme... Becke
Basis function cutoff            BFCut       ...    1.0000e-11
Integration weight cutoff        WCut        ...    1.0000e-14
Grids for H and He will be reduced by one unit

# of grid points (after initial pruning)     ... 131000 (   0.0 sec)
# of grid points (after weights+screening)   ... 121125 (   2.1 sec)
nearest neighbour list constructed           ...    0.0 sec
Grid point re-assignment to atoms done       ...    0.0 sec
Grid point division into batches done        ...    0.7 sec
Reduced shell lists constructed in    0.9 sec

Total number of grid points                  ...   121125
Total number of batches                      ...     1902
Average number of points per batch           ...       63
Average number of grid points per atom       ...     7570
Average number of shells per batch           ...    75.56 (71.28%)
Average number of basis functions per batch  ...   179.64 (73.02%)
Average number of large shells per batch     ...    61.52 (81.42%)
Average number of large basis fcns per batch ...   147.85 (82.30%)
Maximum spatial batch extension              ...   3.40,  3.64,  2.31 au
Average spatial batch extension              ...   0.12,  0.12,  0.11 au

Final grid set up in    4.2 sec
Final integration                            ... done (   0.9 sec)
Change in XC energy                          ...     0.000320717
Integrated number of electrons               ...    45.999998018
Previous integrated no of electrons          ...    45.999886500
Total Energy       :         -250.78184505 Eh           -6824.12094 eV
  Last Energy change         ...    9.7975e-10  Tolerance :   1.0000e-08
  Last MAX-Density change    ...    1.8300e-05  Tolerance :   1.0000e-07
             **** THE GBW FILE WAS UPDATED (0452_+.gbw) ****
             **** DENSITY FILE WAS UPDATED (0452_+.scfp.tmp) ****
             **** ENERGY FILE WAS UPDATED (0452_+.en.tmp) ****
Total SCF time: 0 days 0 hours 0 min 38 sec 
           ************************************************************
           *              Shut down parallel processing               *
           ************************************************************

-------------------------   --------------------
FINAL SINGLE POINT ENERGY      -250.781845053038
-------------------------   --------------------



           ************************************************************
           *        Program running with 8 parallel MPI-processes     *
           *              working on a common directory               *
           ************************************************************
------------------------------------------------------------------------------
                         ORCA SCF GRADIENT CALCULATION
------------------------------------------------------------------------------

Gradient of the Kohn-Sham DFT energy:
Kohn-Sham wavefunction type      ... RKS
Hartree-Fock exchange scaling    ...    0.250
Number of operators              ...    1
Number of atoms                  ...   16
Basis set dimensions             ...  246
Integral neglect threshold       ... 2.5e-11
Integral primitive cutoff        ... 2.5e-12

Nuclear repulsion gradient       ... done
One Electron Gradient            ... done
Pre-screening matrix             ... done
Starting the two electron gradient:
Two electron gradient done
Exchange-correlation gradient    ... done

------------------
CARTESIAN GRADIENT
------------------

   1   C   :    0.000133609   -0.000097764    0.000090457
   2   C   :   -0.000089131    0.000139600   -0.000011899
   3   C   :    0.000059254    0.000088481   -0.000196355
   4   C   :   -0.000012342   -0.000124300    0.000183012
   5   C   :   -0.000091414   -0.000159041    0.000071283
   6   N   :    0.000015168    0.000120406    0.000095989
   7   H   :    0.000018428    0.000045315   -0.000060254
   8   H   :    0.000003572    0.000026865    0.000020740
   9   H   :   -0.000125698    0.000009304   -0.000076827
  10   H   :    0.000046239   -0.000021574   -0.000000335
  11   H   :   -0.000004365   -0.000065617   -0.000002023
  12   H   :   -0.000023793    0.000087770   -0.000033805
  13   H   :    0.000048177    0.000023911   -0.000022193
  14   H   :   -0.000013777    0.000023471   -0.000028702
  15   H   :   -0.000027997    0.000000207   -0.000017043
  16   H   :    0.000064070   -0.000097034   -0.000012043

Norm of the cartesian gradient     ...    0.000538369
RMS gradient                       ...    0.000077707
MAX gradient                       ...    0.000196355

-------
TIMINGS
-------

Total SCF gradient time            ...       14.183 sec

One electron gradient       ....       0.063 sec  (  0.4%)
Prescreening matrices       ....       0.152 sec  (  1.1%)
Two electron gradient       ....      11.715 sec  ( 82.6%)
XC gradient                 ....       1.834 sec  ( 12.9%)
           ************************************************************
           *              Shut down parallel processing               *
           ************************************************************
------------------------------------------------------------------------------
                         ORCA GEOMETRY RELAXATION STEP
------------------------------------------------------------------------------

Reading the OPT-File                    .... done
Getting information on internals        .... done
Copying old internal coords+grads       .... done
Making the new internal coordinates     .... (new redundants).... done
Validating the new internal coordinates .... (new redundants).... done
Calculating the B-matrix                .... done
Calculating the G,G- and P matrices     .... done
Transforming gradient to internals      .... done
Projecting the internal gradient        .... done
Number of atoms                         ....  16
Number of internal coordinates          ....  70
Current Energy                          ....  -250.781845053 Eh
Current gradient norm                   ....     0.000538369 Eh/bohr
Maximum allowed component of the step   ....  0.300
Current trust radius                    ....  0.300
Evaluating the initial hessian          ....  (Almloef) done
Projecting the Hessian                  .... done
Forming the augmented Hessian           .... done
Diagonalizing the augmented Hessian     .... done
Last element of RFO vector              ....  0.999920214
Lowest eigenvalues of augmented Hessian:
 -0.000000549  0.001500236  0.011076676  0.011309625  0.069843331
Length of the computed step             ....  0.012632965
The final length of the internal step   ....  0.012632965
Converting the step to cartesian space:
 Initial RMS(Int)=    0.0015099281
Transforming coordinates:
 Iter   0:  RMS(Cart)=    0.0027223384 RMS(Int)=    0.0015099084
 Iter   1:  RMS(Cart)=    0.0000052589 RMS(Int)=    0.0000027403
 Iter   2:  RMS(Cart)=    0.0000023793 RMS(Int)=    0.0000009692
 Iter   3:  RMS(Cart)=    0.0000011743 RMS(Int)=    0.0000004786
 Iter   4:  RMS(Cart)=    0.0000005797 RMS(Int)=    0.0000002364
 Iter   5:  RMS(Cart)=    0.0000002862 RMS(Int)=    0.0000001167
 Iter   6:  RMS(Cart)=    0.0000001413 RMS(Int)=    0.0000000577
 Iter   7:  RMS(Cart)=    0.0000000697 RMS(Int)=    0.0000000285
done
Storing new coordinates                 .... done

                                .--------------------.
          ----------------------|Geometry convergence|---------------------
          Item                value                 Tolerance   Converged
          -----------------------------------------------------------------
          RMS gradient        0.00004713            0.00003000      NO
          MAX gradient        0.00026927            0.00010000      NO
          RMS step            0.00150993            0.00060000      NO
          MAX step            0.00429261            0.00100000      NO
          ....................................................
          Max(Bonds)      0.0002      Max(Angles)    0.01
          Max(Dihed)        0.25      Max(Improp)    0.00
          -----------------------------------------------------------------

The optimization has not yet converged - more geometry cycles are needed


    ---------------------------------------------------------------------------
                         Redundant Internal Coordinates
                            (Angstroem and degrees)

        Definition                    Value    dE/dq     Step     New-Value
    ----------------------------------------------------------------------------
     1. B(C   1,C   0)                1.5279  0.000043 -0.0001    1.5278   
     2. B(C   2,C   1)                1.4496  0.000046 -0.0000    1.4495   
     3. B(C   3,C   2)                1.2043  0.000269 -0.0001    1.2042   
     4. B(C   4,C   3)                1.4378  0.000053 -0.0001    1.4378   
     5. B(N   5,C   4)                1.5205  0.000070 -0.0001    1.5204   
     6. B(H   6,C   0)                1.0903  0.000075 -0.0001    1.0902   
     7. B(H   7,C   0)                1.0904 -0.000029  0.0000    1.0904   
     8. B(H   8,C   0)                1.0904 -0.000147  0.0002    1.0907   
     9. B(H   9,C   1)                1.0952 -0.000039  0.0001    1.0952   
    10. B(H  10,C   1)                1.0951 -0.000065  0.0001    1.0952   
    11. B(H  11,C   4)                1.0925 -0.000093  0.0001    1.0926   
    12. B(H  12,C   4)                1.0926 -0.000051  0.0001    1.0926   
    13. B(H  13,N   5)                1.0225 -0.000009  0.0000    1.0225   
    14. B(H  14,N   5)                1.0226 -0.000011  0.0000    1.0226   
    15. B(H  15,N   5)                1.0224 -0.000111  0.0001    1.0226   
    16. A(C   1,C   0,H   8)          111.18 -0.000004    0.00    111.18   
    17. A(H   6,C   0,H   7)          108.25  0.000017   -0.01    108.25   
    18. A(H   6,C   0,H   8)          108.21 -0.000005    0.00    108.21   
    19. A(C   1,C   0,H   7)          111.05 -0.000010    0.00    111.05   
    20. A(C   1,C   0,H   6)          109.59 -0.000005    0.00    109.59   
    21. A(H   7,C   0,H   8)          108.46  0.000007   -0.00    108.46   
    22. A(C   2,C   1,H   9)          107.78  0.000015   -0.00    107.78   
    23. A(C   0,C   1,H   9)          110.54 -0.000024    0.00    110.55   
    24. A(C   0,C   1,C   2)          113.37 -0.000000    0.00    113.37   
    25. A(H   9,C   1,H  10)          106.02  0.000019   -0.01    106.02   
    26. A(C   2,C   1,H  10)          108.22  0.000005   -0.00    108.22   
    27. A(C   0,C   1,H  10)          110.58 -0.000012    0.00    110.59   
    28. L(C   1,C   2,C   3,C   0, 2) 181.24  0.000003   -0.00    181.24   
    29. L(C   1,C   2,C   3,C   0, 1) 179.09  0.000065   -0.01    179.09   
    30. L(C   2,C   3,C   4,N   5, 2) 179.14 -0.000029    0.00    179.14   
    31. L(C   2,C   3,C   4,N   5, 1) 181.01 -0.000028    0.00    181.01   
    32. A(C   3,C   4,N   5)          109.66 -0.000016    0.00    109.66   
    33. A(H  11,C   4,H  12)          108.59  0.000004   -0.01    108.58   
    34. A(N   5,C   4,H  12)          106.29  0.000022   -0.00    106.29   
    35. A(C   3,C   4,H  12)          112.79 -0.000011    0.00    112.79   
    36. A(N   5,C   4,H  11)          106.31  0.000012   -0.00    106.30   
    37. A(C   3,C   4,H  11)          112.81 -0.000008    0.00    112.81   
    38. A(H  14,N   5,H  15)          108.71  0.000009   -0.00    108.71   
    39. A(H  13,N   5,H  15)          107.25 -0.000018    0.01    107.25   
    40. A(C   4,N   5,H  15)          109.93  0.000014   -0.00    109.93   
    41. A(H  13,N   5,H  14)          108.74  0.000032   -0.01    108.73   
    42. A(C   4,N   5,H  14)          112.14 -0.000022    0.00    112.14   
    43. A(C   4,N   5,H  13)          109.93 -0.000014    0.00    109.94   
    44. D(H   9,C   1,C   0,H   8)    177.90 -0.000006    0.01    177.92   
    45. D(H  10,C   1,C   0,H   7)   -178.34 -0.000008    0.01   -178.32   
    46. D(C   2,C   1,C   0,H   7)     59.91 -0.000004    0.01     59.92   
    47. D(H  10,C   1,C   0,H   6)    -58.78  0.000004    0.01    -58.78   
    48. D(C   2,C   1,C   0,H   6)    179.47  0.000007    0.01    179.47   
    49. D(H   9,C   1,C   0,H   7)    -61.24 -0.000006    0.01    -61.22   
    50. D(H  10,C   1,C   0,H   8)     60.80 -0.000007    0.01     60.81   
    51. D(H   9,C   1,C   0,H   6)     58.32  0.000005    0.01     58.33   
    52. D(C   2,C   1,C   0,H   8)    -60.95 -0.000004    0.01    -60.94   
    53. D(H  11,C   4,C   1,H   9)    103.27 -0.000010    0.24    103.51   
    54. D(N   5,C   4,C   1,H  10)    -23.58  0.000005    0.23    -23.34   
    55. D(N   5,C   4,C   1,H   9)   -138.08 -0.000002    0.24   -137.84   
    56. D(N   5,C   4,C   1,C   0)     99.86  0.000000    0.24    100.10   
    57. D(H  11,C   4,C   1,H  10)   -142.23 -0.000003    0.23   -141.99   
    58. D(H  12,C   4,C   1,H  10)     94.99 -0.000009    0.24     95.23   
    59. D(H  12,C   4,C   1,H   9)    -19.51 -0.000016    0.25    -19.27   
    60. D(H  12,C   4,C   1,C   0)   -141.57 -0.000014    0.25   -141.33   
    61. D(H  11,C   4,C   1,C   0)    -18.79 -0.000007    0.24    -18.55   
    62. D(H  15,N   5,C   4,H  11)   -178.86 -0.000024    0.03   -178.83   
    63. D(H  15,N   5,C   4,C   3)     58.90 -0.000013    0.03     58.93   
    64. D(H  14,N   5,C   4,H  12)     57.76  0.000003    0.02     57.78   
    65. D(H  14,N   5,C   4,H  11)    -57.80 -0.000017    0.02    -57.77   
    66. D(H  14,N   5,C   4,C   3)    179.97 -0.000006    0.02    179.99   
    67. D(H  13,N   5,C   4,H  12)    178.86  0.000019    0.01    178.87   
    68. D(H  13,N   5,C   4,H  11)     63.30 -0.000001    0.02     63.31   
    69. D(H  15,N   5,C   4,H  12)    -63.30 -0.000004    0.02    -63.28   
    70. D(H  13,N   5,C   4,C   3)    -58.94  0.000010    0.01    -58.92   
    ----------------------------------------------------------------------------

         *************************************************************
         *                GEOMETRY OPTIMIZATION CYCLE   2            *
         *************************************************************
---------------------------------
CARTESIAN COORDINATES (ANGSTROEM)
---------------------------------
  C      1.131965   -0.000764   -2.741547
  C      0.058794    0.775518   -1.980046
  C     -0.209768    0.240797   -0.659813
  C     -0.430360   -0.225901    0.428161
  C     -0.718250   -0.793427    1.717413
  N     -0.001270    0.000702    2.797670
  H      1.277655    0.446084   -3.725254
  H      0.838614   -1.041883   -2.879503
  H      2.085234    0.022149   -2.212123
  H     -0.883463    0.777018   -2.538305
  H      0.347552    1.826407   -1.871701
  H     -0.370734   -1.824855    1.813301
  H     -1.781489   -0.759682    1.966913
  H      1.006933   -0.010629    2.627583
  H     -0.180668   -0.371745    3.733029
  H     -0.302521    0.977484    2.770214

----------------------------
CARTESIAN COORDINATES (A.U.)
----------------------------
  NO LB      ZA    FRAG    MASS        X           Y           Z
   0 C     6.0000    0    12.011          2.139103917600949         -0.001443330553531         -5.180773767923662
   1 C     6.0000    0    12.011          0.111104664408637          1.465515899518348         -3.741743796101402
   2 C     6.0000    0    12.011         -0.396404939368964          0.455041144469691         -1.246866243824009
   3 C     6.0000    0    12.011         -0.813261965942168         -0.426890242620293          0.809107487184918
   4 C     6.0000    0    12.011         -1.357295786952402         -1.499360137558422          3.245439564329553
   5 N     7.0000    0    14.007         -0.002399425072131          0.001326689700342          5.286830163004030
   6 H     1.0000    0     1.008          2.414417410974622          0.842977342680347         -7.039709810040852
   7 H     1.0000    0     1.008          1.584751094774456         -1.968874112687616         -5.441472494634992
   8 H     1.0000    0     1.008          3.940521185242183          0.041854875452152         -4.180307055763654
   9 H     1.0000    0     1.008         -1.669503760411585          1.468351280794777         -4.796701070191613
  10 H     1.0000    0     1.008          0.656778958697624          3.451409143052400         -3.537002769949337
  11 H     1.0000    0     1.008         -0.700585737698524         -3.448475633805625          3.426642014744342
  12 H     1.0000    0     1.008         -3.366527012122738         -1.435590481834520          3.716927546965081
  13 H     1.0000    0     1.008          1.902827533093907         -0.020085267561477          4.965412284609801
  14 H     1.0000    0     1.008         -0.341412307232131         -0.702496363126319          7.054402322388860
  15 H     1.0000    0     1.008         -0.571681347932950          1.847177136267443          5.234945797826795

--------------------------------
INTERNAL COORDINATES (ANGSTROEM)
--------------------------------
 C      0   0   0   0.000000     0.000     0.000
 C      1   0   0   1.527807     0.000     0.000
 C      2   1   0   1.449505   113.371     0.000
 C      3   2   1   1.204224   178.845   321.765
 C      4   3   2   1.437754   178.871   291.861
 N      5   4   3   1.520414   109.665   206.107
 H      1   2   3   1.090219   109.593   179.473
 H      1   2   3   1.090420   111.052    59.924
 H      1   2   3   1.090659   111.181   299.061
 H      2   1   3   1.095219   110.546   238.854
 H      2   1   3   1.095212   110.588   121.751
 H      5   4   3   1.092614   112.807    87.834
 H      5   4   3   1.092642   112.794   324.355
 H      6   5   4   1.022512   109.938   301.079
 H      6   5   4   1.022642   112.142   179.991
 H      6   5   4   1.022550   109.933    58.929

---------------------------
INTERNAL COORDINATES (A.U.)
---------------------------
 C      0   0   0   0.000000     0.000     0.000
 C      1   0   0   2.887137     0.000     0.000
 C      2   1   0   2.739168   113.371     0.000
 C      3   2   1   2.275654   178.845   321.765
 C      4   3   2   2.716961   178.871   291.861
 N      5   4   3   2.873166   109.665   206.107
 H      1   2   3   2.060215   109.593   179.473
 H      1   2   3   2.060596   111.052    59.924
 H      1   2   3   2.061046   111.181   299.061
 H      2   1   3   2.069664   110.546   238.854
 H      2   1   3   2.069650   110.588   121.751
 H      5   4   3   2.064741   112.807    87.834
 H      5   4   3   2.064795   112.794   324.355
 H      6   5   4   1.932267   109.938   301.079
 H      6   5   4   1.932513   112.142   179.991
 H      6   5   4   1.932340   109.933    58.929



           ************************************************************
           *        Program running with 8 parallel MPI-processes     *
           *              working on a common directory               *
           ************************************************************
           ************************************************************
           *              Shut down parallel processing               *
           ************************************************************


           ************************************************************
           *        Program running with 8 parallel MPI-processes     *
           *              working on a common directory               *
           ************************************************************

Diagonalization of the overlap matrix:
Smallest eigenvalue                        ... 1.092e-05
Time for diagonalization                   ...    0.403 sec
Threshold for overlap eigenvalues          ... 1.000e-08
Number of eigenvalues below threshold      ... 0
Time for construction of square roots      ...    0.018 sec
Total time needed                          ...    0.421 sec

-------------------
DFT GRID GENERATION
-------------------

General Integration Accuracy     IntAcc      ...  4.340
Radial Grid Type                 RadialGrid  ... Gauss-Chebyshev
Angular Grid (max. acc.)         AngularGrid ... Lebedev-194
Angular grid pruning method      GridPruning ... 3 (G Style)
Weight generation scheme         WeightScheme... Becke
Basis function cutoff            BFCut       ...    1.0000e-11
Integration weight cutoff        WCut        ...    1.0000e-14
Grids for H and He will be reduced by one unit

# of grid points (after initial pruning)     ...  35004 (   0.0 sec)
# of grid points (after weights+screening)   ...  32707 (   0.1 sec)
nearest neighbour list constructed           ...    0.0 sec
Grid point re-assignment to atoms done       ...    0.0 sec
Grid point division into batches done        ...    0.0 sec
Reduced shell lists constructed in    0.1 sec

Total number of grid points                  ...    32707
Total number of batches                      ...      520
Average number of points per batch           ...       62
Average number of grid points per atom       ...     2044
Average number of shells per batch           ...    75.95 (71.66%)
Average number of basis functions per batch  ...   180.02 (73.18%)
Average number of large shells per batch     ...    62.59 (82.41%)
Average number of large basis fcns per batch ...   150.08 (83.37%)
Maximum spatial batch extension              ...   3.80,  3.57,  2.57 au
Average spatial batch extension              ...   0.17,  0.17,  0.16 au

Time for grid setup =    0.508 sec

--------------
SCF ITERATIONS
--------------
ITER       Energy         Delta-E        Max-DP      RMS-DP      [F,P]     Damp
               ***  Starting incremental Fock matrix formation  ***
                      *** Initiating the SOSCF procedure ***
                      *** Re-Reading the Fockian *** 
                      *** Removing any level shift *** 
ITER      Energy       Delta-E        Grad      Rot      Max-DP    RMS-DP
  0   -250.78216155 -250.7821615509  0.000255  0.000255  0.000389  0.000010
               *** Restarting incremental Fock matrix formation ***
  1   -250.78216599  -0.0000044403  0.000094  0.000152  0.000108  0.000004
  2   -250.78216641  -0.0000004208  0.000011  0.000044  0.000073  0.000002
  3   -250.78216641  -0.0000000018  0.000015  0.000012  0.000027  0.000001
                  ***Gradient check signals convergence***
              ***Rediagonalizing the Fockian in SOSCF/NRSCF***

               *****************************************************
               *                     SUCCESS                       *
               *           SCF CONVERGED AFTER   4 CYCLES          *
               *****************************************************

Setting up the final grid:

General Integration Accuracy     IntAcc      ...  5.010
Radial Grid Type                 RadialGrid  ... Gauss-Chebyshev
Angular Grid (max. acc.)         AngularGrid ... Lebedev-434
Angular grid pruning method      GridPruning ... 3 (G Style)
Weight generation scheme         WeightScheme... Becke
Basis function cutoff            BFCut       ...    1.0000e-11
Integration weight cutoff        WCut        ...    1.0000e-14
Grids for H and He will be reduced by one unit

# of grid points (after initial pruning)     ... 131000 (   0.0 sec)
# of grid points (after weights+screening)   ... 121124 (   0.1 sec)
nearest neighbour list constructed           ...    0.0 sec
Grid point re-assignment to atoms done       ...    0.0 sec
Grid point division into batches done        ...    1.0 sec
Reduced shell lists constructed in    1.3 sec

Total number of grid points                  ...   121124
Total number of batches                      ...     1901
Average number of points per batch           ...       63
Average number of grid points per atom       ...     7570
Average number of shells per batch           ...    75.55 (71.27%)
Average number of basis functions per batch  ...   179.56 (72.99%)
Average number of large shells per batch     ...    61.49 (81.39%)
Average number of large basis fcns per batch ...   147.74 (82.28%)
Maximum spatial batch extension              ...   3.40,  3.64,  2.31 au
Average spatial batch extension              ...   0.12,  0.12,  0.11 au

Final grid set up in    1.8 sec
Final integration                            ... done (   0.6 sec)
Change in XC energy                          ...     0.000320941
Integrated number of electrons               ...    45.999997900
Previous integrated no of electrons          ...    45.999888894
Total Energy       :         -250.78184548 Eh           -6824.12095 eV
  Last Energy change         ...   -1.0756e-08  Tolerance :   1.0000e-08
  Last MAX-Density change    ...    2.2349e-05  Tolerance :   1.0000e-07
             **** THE GBW FILE WAS UPDATED (0452_+.gbw) ****
             **** DENSITY FILE WAS UPDATED (0452_+.scfp.tmp) ****
             **** ENERGY FILE WAS UPDATED (0452_+.en.tmp) ****
Total SCF time: 0 days 0 hours 0 min 16 sec 
           ************************************************************
           *              Shut down parallel processing               *
           ************************************************************

-------------------------   --------------------
FINAL SINGLE POINT ENERGY      -250.781845483425
-------------------------   --------------------



           ************************************************************
           *        Program running with 8 parallel MPI-processes     *
           *              working on a common directory               *
           ************************************************************
------------------------------------------------------------------------------
                         ORCA SCF GRADIENT CALCULATION
------------------------------------------------------------------------------

Gradient of the Kohn-Sham DFT energy:
Kohn-Sham wavefunction type      ... RKS
Hartree-Fock exchange scaling    ...    0.250
Number of operators              ...    1
Number of atoms                  ...   16
Basis set dimensions             ...  246
Integral neglect threshold       ... 2.5e-11
Integral primitive cutoff        ... 2.5e-12

Nuclear repulsion gradient       ... done
One Electron Gradient            ... done
Pre-screening matrix             ... done
Starting the two electron gradient:
Two electron gradient done
Exchange-correlation gradient    ... done

------------------
CARTESIAN GRADIENT
------------------

   1   C   :    0.000022114   -0.000032883   -0.000011614
   2   C   :   -0.000041233    0.000055497    0.000006277
   3   C   :    0.000010554    0.000012690   -0.000014879
   4   C   :    0.000027593   -0.000045150    0.000001656
   5   C   :   -0.000050745   -0.000035140    0.000026232
   6   N   :    0.000024945    0.000002666    0.000052912
   7   H   :    0.000001273    0.000010254    0.000001269
   8   H   :   -0.000005149    0.000003536    0.000007434
   9   H   :   -0.000002674    0.000011025   -0.000006652
  10   H   :    0.000009027   -0.000019985   -0.000007152
  11   H   :    0.000002688   -0.000006760    0.000002845
  12   H   :    0.000003978    0.000008857   -0.000014758
  13   H   :    0.000004164    0.000024379   -0.000003789
  14   H   :   -0.000001963    0.000006020   -0.000018790
  15   H   :   -0.000016926   -0.000003794   -0.000006122
  16   H   :    0.000012355    0.000008787   -0.000014871

Norm of the cartesian gradient     ...    0.000144352
RMS gradient                       ...    0.000020835
MAX gradient                       ...    0.000055497

-------
TIMINGS
-------

Total SCF gradient time            ...       14.968 sec

One electron gradient       ....       0.162 sec  (  1.1%)
Prescreening matrices       ....       0.290 sec  (  1.9%)
Two electron gradient       ....      11.749 sec  ( 78.5%)
XC gradient                 ....       1.858 sec  ( 12.4%)
           ************************************************************
           *              Shut down parallel processing               *
           ************************************************************
------------------------------------------------------------------------------
                         ORCA GEOMETRY RELAXATION STEP
------------------------------------------------------------------------------

Reading the OPT-File                    .... done
Getting information on internals        .... done
Copying old internal coords+grads       .... done
Making the new internal coordinates     .... (new redundants).... done
Validating the new internal coordinates .... (new redundants).... done
Calculating the B-matrix                .... done
Calculating the G,G- and P matrices     .... done
Transforming gradient to internals      .... done
Projecting the internal gradient        .... done
Number of atoms                         ....  16
Number of internal coordinates          ....  70
Current Energy                          ....  -250.781845483 Eh
Current gradient norm                   ....     0.000144352 Eh/bohr
Maximum allowed component of the step   ....  0.300
Current trust radius                    ....  0.300
Updating the Hessian (BFGS)             .... done
Forming the augmented Hessian           .... done
Diagonalizing the augmented Hessian     .... done
Last element of RFO vector              ....  0.998984246
Lowest eigenvalues of augmented Hessian:
 -0.000001054  0.000496731  0.010807737  0.011270040  0.069893186
Length of the computed step             ....  0.045106617
The final length of the internal step   ....  0.045106617
Converting the step to cartesian space:
 Initial RMS(Int)=    0.0053912719
Transforming coordinates:
 Iter   0:  RMS(Cart)=    0.0097193017 RMS(Int)=    0.7508673703
 Iter   1:  RMS(Cart)=    0.0000387971 RMS(Int)=    0.0000250927
 Iter   2:  RMS(Cart)=    0.0000081626 RMS(Int)=    0.0000033265
 Iter   3:  RMS(Cart)=    0.0000040130 RMS(Int)=    0.0000016405
 Iter   4:  RMS(Cart)=    0.0000019803 RMS(Int)=    0.0000008099
 Iter   5:  RMS(Cart)=    0.0000009773 RMS(Int)=    0.0000003999
 Iter   6:  RMS(Cart)=    0.0000004823 RMS(Int)=    0.0000001974
 Iter   7:  RMS(Cart)=    0.0000002381 RMS(Int)=    0.0000000975
 Iter   8:  RMS(Cart)=    0.0000001175 RMS(Int)=    0.0000000481
 Iter   9:  RMS(Cart)=    0.0000000580 RMS(Int)=    0.0000000238
done
Storing new coordinates                 .... done

                                .--------------------.
          ----------------------|Geometry convergence|---------------------
          Item                value                 Tolerance   Converged
          -----------------------------------------------------------------
          Energy change      -0.00000043            0.00000100      YES
          RMS gradient        0.00001205            0.00003000      YES
          MAX gradient        0.00005289            0.00010000      YES
          RMS step            0.00539127            0.00060000      NO
          MAX step            0.01533364            0.00100000      NO
          ....................................................
          Max(Bonds)      0.0003      Max(Angles)    0.02
          Max(Dihed)        0.88      Max(Improp)    0.00
          -----------------------------------------------------------------

The optimization has not yet converged - more geometry cycles are needed


    ---------------------------------------------------------------------------
                         Redundant Internal Coordinates
                            (Angstroem and degrees)

        Definition                    Value    dE/dq     Step     New-Value
    ----------------------------------------------------------------------------
     1. B(C   1,C   0)                1.5278  0.000020 -0.0001    1.5277   
     2. B(C   2,C   1)                1.4495  0.000012 -0.0001    1.4494   
     3. B(C   3,C   2)                1.2042  0.000032 -0.0002    1.2041   
     4. B(C   4,C   3)                1.4378  0.000018 -0.0001    1.4376   
     5. B(N   5,C   4)                1.5204  0.000026 -0.0002    1.5202   
     6. B(H   6,C   0)                1.0902  0.000003 -0.0001    1.0901   
     7. B(H   7,C   0)                1.0904 -0.000003  0.0001    1.0905   
     8. B(H   8,C   0)                1.0907 -0.000005  0.0003    1.0909   
     9. B(H   9,C   1)                1.0952 -0.000004  0.0001    1.0953   
    10. B(H  10,C   1)                1.0952 -0.000006  0.0001    1.0953   
    11. B(H  11,C   4)                1.0926 -0.000008  0.0002    1.0928   
    12. B(H  12,C   4)                1.0926 -0.000004  0.0001    1.0927   
    13. B(H  13,N   5)                1.0225  0.000001  0.0000    1.0225   
    14. B(H  14,N   5)                1.0226 -0.000001  0.0000    1.0227   
    15. B(H  15,N   5)                1.0226  0.000006  0.0001    1.0227   
    16. A(C   1,C   0,H   8)          111.18 -0.000002    0.00    111.19   
    17. A(H   6,C   0,H   7)          108.25  0.000011   -0.01    108.23   
    18. A(H   6,C   0,H   8)          108.21 -0.000001    0.01    108.22   
    19. A(C   1,C   0,H   7)          111.05 -0.000007    0.00    111.05   
    20. A(C   1,C   0,H   6)          109.59 -0.000008    0.01    109.60   
    21. A(H   7,C   0,H   8)          108.46  0.000008   -0.01    108.45   
    22. A(C   2,C   1,H   9)          107.78  0.000004   -0.00    107.78   
    23. A(C   0,C   1,H   9)          110.55 -0.000014    0.01    110.56   
    24. A(C   0,C   1,C   2)          113.37  0.000001    0.00    113.37   
    25. A(H   9,C   1,H  10)          106.02  0.000015   -0.02    106.00   
    26. A(C   2,C   1,H  10)          108.22  0.000004   -0.00    108.22   
    27. A(C   0,C   1,H  10)          110.59 -0.000009    0.01    110.60   
    28. L(C   1,C   2,C   3,C   0, 2) 181.24  0.000004   -0.00    181.24   
    29. L(C   1,C   2,C   3,C   0, 1) 179.09  0.000053   -0.02    179.06   
    30. L(C   2,C   3,C   4,N   5, 2) 179.14 -0.000028    0.01    179.15   
    31. L(C   2,C   3,C   4,N   5, 1) 181.01 -0.000020    0.01    181.02   
    32. A(C   3,C   4,N   5)          109.66 -0.000009    0.01    109.68   
    33. A(H  11,C   4,H  12)          108.58  0.000005   -0.02    108.56   
    34. A(N   5,C   4,H  12)          106.29  0.000014   -0.00    106.29   
    35. A(C   3,C   4,H  12)          112.79 -0.000008    0.01    112.80   
    36. A(N   5,C   4,H  11)          106.30  0.000002   -0.01    106.30   
    37. A(C   3,C   4,H  11)          112.81 -0.000003    0.00    112.81   
    38. A(H  14,N   5,H  15)          108.71  0.000010   -0.01    108.70   
    39. A(H  13,N   5,H  15)          107.25 -0.000003    0.02    107.27   
    40. A(C   4,N   5,H  15)          109.93 -0.000001    0.00    109.94   
    41. A(H  13,N   5,H  14)          108.73  0.000020   -0.02    108.70   
    42. A(C   4,N   5,H  14)          112.14 -0.000012    0.00    112.15   
    43. A(C   4,N   5,H  13)          109.94 -0.000013    0.01    109.95   
    44. D(H   9,C   1,C   0,H   8)    177.92 -0.000003    0.04    177.95   
    45. D(H  10,C   1,C   0,H   7)   -178.32 -0.000003    0.04   -178.28   
    46. D(C   2,C   1,C   0,H   7)     59.92 -0.000003    0.04     59.96   
    47. D(H  10,C   1,C   0,H   6)    -58.78  0.000000    0.03    -58.75   
    48. D(C   2,C   1,C   0,H   6)    179.47  0.000001    0.03    179.50   
    49. D(H   9,C   1,C   0,H   7)    -61.22  0.000001    0.03    -61.19   
    50. D(H  10,C   1,C   0,H   8)     60.81 -0.000007    0.05     60.86   
    51. D(H   9,C   1,C   0,H   6)     58.33  0.000005    0.02     58.35   
    52. D(C   2,C   1,C   0,H   8)    -60.94 -0.000007    0.04    -60.90   
    53. D(H  11,C   4,C   1,H   9)    103.51 -0.000005    0.85    104.36   
    54. D(N   5,C   4,C   1,H  10)    -23.34 -0.000001    0.85    -22.49   
    55. D(N   5,C   4,C   1,H   9)   -137.84 -0.000002    0.86   -136.98   
    56. D(N   5,C   4,C   1,C   0)    100.10 -0.000002    0.85    100.95   
    57. D(H  11,C   4,C   1,H  10)   -141.99 -0.000004    0.84   -141.15   
    58. D(H  12,C   4,C   1,H  10)     95.23 -0.000013    0.87     96.10   
    59. D(H  12,C   4,C   1,H   9)    -19.27 -0.000014    0.88    -18.39   
    60. D(H  12,C   4,C   1,C   0)   -141.33 -0.000014    0.88   -140.45   
    61. D(H  11,C   4,C   1,C   0)    -18.55 -0.000004    0.85    -17.70   
    62. D(H  15,N   5,C   4,H  11)   -178.83 -0.000015    0.08   -178.75   
    63. D(H  15,N   5,C   4,C   3)     58.93 -0.000008    0.07     59.00   
    64. D(H  14,N   5,C   4,H  12)     57.78  0.000002    0.05     57.82   
    65. D(H  14,N   5,C   4,H  11)    -57.77 -0.000011    0.07    -57.70   
    66. D(H  14,N   5,C   4,C   3)    179.99 -0.000004    0.07    180.06   
    67. D(H  13,N   5,C   4,H  12)    178.87  0.000010    0.03    178.89   
    68. D(H  13,N   5,C   4,H  11)     63.31 -0.000003    0.05     63.37   
    69. D(H  15,N   5,C   4,H  12)    -63.28 -0.000002    0.05    -63.23   
    70. D(H  13,N   5,C   4,C   3)    -58.92  0.000004    0.05    -58.88   
    ----------------------------------------------------------------------------

         *************************************************************
         *                GEOMETRY OPTIMIZATION CYCLE   3            *
         *************************************************************
---------------------------------
CARTESIAN COORDINATES (ANGSTROEM)
---------------------------------
  C      1.128489   -0.003435   -2.744532
  C      0.062439    0.777874   -1.978456
  C     -0.205986    0.241955   -0.658775
  C     -0.426255   -0.226062    0.428516
  C     -0.713692   -0.795693    1.716822
  N     -0.005853    0.003240    2.799262
  H      1.274753    0.444845   -3.727349
  H      0.827857   -1.042252   -2.884629
  H      2.083377    0.011545   -2.217201
  H     -0.881429    0.786827   -2.534078
  H      0.358068    1.826823   -1.868514
  H     -0.358980   -1.824771    1.813733
  H     -1.777949   -0.769992    1.963374
  H      1.002883   -0.000006    2.631941
  H     -0.184461   -0.371318    3.733951
  H     -0.315037    0.977696    2.771926

----------------------------
CARTESIAN COORDINATES (A.U.)
----------------------------
  NO LB      ZA    FRAG    MASS        X           Y           Z
   0 C     6.0000    0    12.011          2.132535436316506         -0.006491230587929         -5.186414304634948
   1 C     6.0000    0    12.011          0.117993395764470          1.469967943721657         -3.738739686530019
   2 C     6.0000    0    12.011         -0.389257986149345          0.457228646644989         -1.244904436882211
   3 C     6.0000    0    12.011         -0.805504321198730         -0.427195038173461          0.809777581520691
   4 C     6.0000    0    12.011         -1.348682374457783         -1.503642559122556          3.244323794743869
   5 N     7.0000    0    14.007         -0.011060157980849          0.006122791068469          5.289838792734836
   6 H     1.0000    0     1.008          2.408933408093559          0.840634845294055         -7.043668459442799
   7 H     1.0000    0     1.008          1.564423127341660         -1.969571384702060         -5.451158861797852
   8 H     1.0000    0     1.008          3.937012113653116          0.021816876640994         -4.189902222009052
   9 H     1.0000    0     1.008         -1.665658767656355          1.486887669547462         -4.788712477879179
  10 H     1.0000    0     1.008          0.676651135819317          3.452194699158525         -3.530979842090817
  11 H     1.0000    0     1.008         -0.678373810537575         -3.448317355851839          3.427458063941755
  12 H     1.0000    0     1.008         -3.359837162762096         -1.455074495013681          3.710239047728259
  13 H     1.0000    0     1.008          1.895173717430456         -0.000010900986583          4.973647532317966
  14 H     1.0000    0     1.008         -0.348581144256090         -0.701689472954278          7.056144599409337
  15 H     1.0000    0     1.008         -0.595334127361478          1.847576907503932          5.238181051494020

--------------------------------
INTERNAL COORDINATES (ANGSTROEM)
--------------------------------
 C      0   0   0   0.000000     0.000     0.000
 C      1   0   0   1.527671     0.000     0.000
 C      2   1   0   1.449420   113.373     0.000
 C      3   2   1   1.204060   178.826   322.525
 C      4   3   2   1.437649   178.864   292.549
 N      5   4   3   1.520200   109.679   205.514
 H      1   2   3   1.090081   109.599   179.498
 H      1   2   3   1.090481   111.054    59.961
 H      1   2   3   1.090923   111.185   299.103
 H      2   1   3   1.095300   110.557   238.849
 H      2   1   3   1.095344   110.595   121.755
 H      5   4   3   1.092800   112.811    87.237
 H      5   4   3   1.092745   112.805   323.775
 H      6   5   4   1.022523   109.948   301.124
 H      6   5   4   1.022662   112.147   180.056
 H      6   5   4   1.022695   109.935    59.003

---------------------------
INTERNAL COORDINATES (A.U.)
---------------------------
 C      0   0   0   0.000000     0.000     0.000
 C      1   0   0   2.886879     0.000     0.000
 C      2   1   0   2.739007   113.373     0.000
 C      3   2   1   2.275343   178.826   322.525
 C      4   3   2   2.716762   178.864   292.549
 N      5   4   3   2.872761   109.679   205.514
 H      1   2   3   2.059954   109.599   179.498
 H      1   2   3   2.060710   111.054    59.961
 H      1   2   3   2.061546   111.185   299.103
 H      2   1   3   2.069817   110.557   238.849
 H      2   1   3   2.069900   110.595   121.755
 H      5   4   3   2.065094   112.811    87.237
 H      5   4   3   2.064989   112.805   323.775
 H      6   5   4   1.932289   109.948   301.124
 H      6   5   4   1.932551   112.147   180.056
 H      6   5   4   1.932614   109.935    59.003



           ************************************************************
           *        Program running with 8 parallel MPI-processes     *
           *              working on a common directory               *
           ************************************************************
           ************************************************************
           *              Shut down parallel processing               *
           ************************************************************


           ************************************************************
           *        Program running with 8 parallel MPI-processes     *
           *              working on a common directory               *
           ************************************************************

Diagonalization of the overlap matrix:
Smallest eigenvalue                        ... 1.092e-05
Time for diagonalization                   ...    0.215 sec
Threshold for overlap eigenvalues          ... 1.000e-08
Number of eigenvalues below threshold      ... 0
Time for construction of square roots      ...    0.015 sec
Total time needed                          ...    0.230 sec

-------------------
DFT GRID GENERATION
-------------------

General Integration Accuracy     IntAcc      ...  4.340
Radial Grid Type                 RadialGrid  ... Gauss-Chebyshev
Angular Grid (max. acc.)         AngularGrid ... Lebedev-194
Angular grid pruning method      GridPruning ... 3 (G Style)
Weight generation scheme         WeightScheme... Becke
Basis function cutoff            BFCut       ...    1.0000e-11
Integration weight cutoff        WCut        ...    1.0000e-14
Grids for H and He will be reduced by one unit

# of grid points (after initial pruning)     ...  35004 (   0.0 sec)
# of grid points (after weights+screening)   ...  32705 (   0.1 sec)
nearest neighbour list constructed           ...    0.0 sec
Grid point re-assignment to atoms done       ...    0.0 sec
Grid point division into batches done        ...    0.0 sec
Reduced shell lists constructed in    0.1 sec

Total number of grid points                  ...    32705
Total number of batches                      ...      520
Average number of points per batch           ...       62
Average number of grid points per atom       ...     2044
Average number of shells per batch           ...    75.95 (71.66%)
Average number of basis functions per batch  ...   179.95 (73.15%)
Average number of large shells per batch     ...    62.62 (82.45%)
Average number of large basis fcns per batch ...   150.14 (83.43%)
Maximum spatial batch extension              ...   3.80,  3.61,  2.58 au
Average spatial batch extension              ...   0.17,  0.17,  0.16 au

Time for grid setup =    0.451 sec

--------------
SCF ITERATIONS
--------------
ITER       Energy         Delta-E        Max-DP      RMS-DP      [F,P]     Damp
               ***  Starting incremental Fock matrix formation  ***
                      *** Initiating the SOSCF procedure ***
                      *** Re-Reading the Fockian *** 
                      *** Removing any level shift *** 
ITER      Energy       Delta-E        Grad      Rot      Max-DP    RMS-DP
  0   -250.78210681 -250.7821068094  0.000909  0.000909  0.000846  0.000030
               *** Restarting incremental Fock matrix formation ***
  1   -250.78216261  -0.0000557996  0.000333  0.000541  0.000380  0.000014
  2   -250.78216793  -0.0000053228  0.000038  0.000140  0.000182  0.000004
  3   -250.78216798  -0.0000000503  0.000051  0.000080  0.000070  0.000002
  4   -250.78216804  -0.0000000548  0.000031  0.000049  0.000054  0.000001
  5   -250.78216804  -0.0000000005  0.000021  0.000023  0.000024  0.000001
  6   -250.78216805  -0.0000000124  0.000004  0.000008  0.000018  0.000000
                  ***Gradient check signals convergence***
              ***Rediagonalizing the Fockian in SOSCF/NRSCF***

               *****************************************************
               *                     SUCCESS                       *
               *           SCF CONVERGED AFTER   7 CYCLES          *
               *****************************************************

Setting up the final grid:

General Integration Accuracy     IntAcc      ...  5.010
Radial Grid Type                 RadialGrid  ... Gauss-Chebyshev
Angular Grid (max. acc.)         AngularGrid ... Lebedev-434
Angular grid pruning method      GridPruning ... 3 (G Style)
Weight generation scheme         WeightScheme... Becke
Basis function cutoff            BFCut       ...    1.0000e-11
Integration weight cutoff        WCut        ...    1.0000e-14
Grids for H and He will be reduced by one unit

# of grid points (after initial pruning)     ... 131000 (   0.0 sec)
# of grid points (after weights+screening)   ... 121126 (   0.1 sec)
nearest neighbour list constructed           ...    0.0 sec
Grid point re-assignment to atoms done       ...    0.0 sec
Grid point division into batches done        ...    0.7 sec
Reduced shell lists constructed in    0.9 sec

Total number of grid points                  ...   121126
Total number of batches                      ...     1901
Average number of points per batch           ...       63
Average number of grid points per atom       ...     7570
Average number of shells per batch           ...    75.57 (71.29%)
Average number of basis functions per batch  ...   179.59 (73.00%)
Average number of large shells per batch     ...    61.54 (81.43%)
Average number of large basis fcns per batch ...   147.95 (82.38%)
Maximum spatial batch extension              ...   3.40,  3.58,  2.23 au
Average spatial batch extension              ...   0.12,  0.12,  0.12 au

Final grid set up in    1.0 sec
Final integration                            ... done (   0.4 sec)
Change in XC energy                          ...     0.000321882
Integrated number of electrons               ...    45.999997320
Previous integrated no of electrons          ...    45.999897667
Total Energy       :         -250.78184617 Eh           -6824.12097 eV
  Last Energy change         ...   -1.1061e-09  Tolerance :   1.0000e-08
  Last MAX-Density change    ...    2.7518e-05  Tolerance :   1.0000e-07
             **** THE GBW FILE WAS UPDATED (0452_+.gbw) ****
             **** DENSITY FILE WAS UPDATED (0452_+.scfp.tmp) ****
             **** ENERGY FILE WAS UPDATED (0452_+.en.tmp) ****
Total SCF time: 0 days 0 hours 0 min 20 sec 
           ************************************************************
           *              Shut down parallel processing               *
           ************************************************************

-------------------------   --------------------
FINAL SINGLE POINT ENERGY      -250.781846169453
-------------------------   --------------------



           ************************************************************
           *        Program running with 8 parallel MPI-processes     *
           *              working on a common directory               *
           ************************************************************
------------------------------------------------------------------------------
                         ORCA SCF GRADIENT CALCULATION
------------------------------------------------------------------------------

Gradient of the Kohn-Sham DFT energy:
Kohn-Sham wavefunction type      ... RKS
Hartree-Fock exchange scaling    ...    0.250
Number of operators              ...    1
Number of atoms                  ...   16
Basis set dimensions             ...  246
Integral neglect threshold       ... 2.5e-11
Integral primitive cutoff        ... 2.5e-12

Nuclear repulsion gradient       ... done
One Electron Gradient            ... done
Pre-screening matrix             ... done
Starting the two electron gradient:
Two electron gradient done
Exchange-correlation gradient    ... done

------------------
CARTESIAN GRADIENT
------------------

   1   C   :   -0.000137257    0.000081046   -0.000125282
   2   C   :    0.000073436   -0.000093446    0.000036203
   3   C   :   -0.000071942   -0.000080724    0.000233380
   4   C   :    0.000082191    0.000061309   -0.000248595
   5   C   :    0.000025397    0.000174920   -0.000050490
   6   N   :    0.000020053   -0.000136905   -0.000043679
   7   H   :   -0.000019565   -0.000042417    0.000074317
   8   H   :   -0.000012486   -0.000026484   -0.000015002
   9   H   :    0.000147143    0.000003392    0.000081332
  10   H   :   -0.000046616   -0.000009659   -0.000005348
  11   H   :   -0.000002363    0.000071870    0.000003859
  12   H   :    0.000030494   -0.000097266    0.000020372
  13   H   :   -0.000051335    0.000010489    0.000025680
  14   H   :    0.000009937   -0.000024591    0.000012670
  15   H   :    0.000012613   -0.000002933    0.000009778
  16   H   :   -0.000059699    0.000111399   -0.000009196

Norm of the cartesian gradient     ...    0.000570786
RMS gradient                       ...    0.000082386
MAX gradient                       ...    0.000248595

-------
TIMINGS
-------

Total SCF gradient time            ...       18.890 sec

One electron gradient       ....       0.276 sec  (  1.5%)
Prescreening matrices       ....       1.280 sec  (  6.8%)
Two electron gradient       ....      11.884 sec  ( 62.9%)
XC gradient                 ....       1.833 sec  (  9.7%)
           ************************************************************
           *              Shut down parallel processing               *
           ************************************************************
------------------------------------------------------------------------------
                         ORCA GEOMETRY RELAXATION STEP
------------------------------------------------------------------------------

Reading the OPT-File                    .... done
Getting information on internals        .... done
Copying old internal coords+grads       .... done
Making the new internal coordinates     .... (new redundants).... done
Validating the new internal coordinates .... (new redundants).... done
Calculating the B-matrix                .... done
Calculating the G,G- and P matrices     .... done
Transforming gradient to internals      .... done
Projecting the internal gradient        .... done
Number of atoms                         ....  16
Number of internal coordinates          ....  70
Current Energy                          ....  -250.781846169 Eh
Current gradient norm                   ....     0.000570786 Eh/bohr
Maximum allowed component of the step   ....  0.300
Current trust radius                    ....  0.300
Updating the Hessian (BFGS)             .... done
Forming the augmented Hessian           .... done
Diagonalizing the augmented Hessian     .... done
Last element of RFO vector              ....  0.998265531
Lowest eigenvalues of augmented Hessian:
 -0.000000907  0.000214172  0.010867864  0.011274426  0.070107798
Length of the computed step             ....  0.058974436
The final length of the internal step   ....  0.058974436
Converting the step to cartesian space:
 Initial RMS(Int)=    0.0070487933
Transforming coordinates:
 Iter   0:  RMS(Cart)=    0.0126618213 RMS(Int)=    0.0070486331
 Iter   1:  RMS(Cart)=    0.0000641275 RMS(Int)=    0.0000417371
 Iter   2:  RMS(Cart)=    0.0000107273 RMS(Int)=    0.0000043374
 Iter   3:  RMS(Cart)=    0.0000052524 RMS(Int)=    0.0000021340
 Iter   4:  RMS(Cart)=    0.0000025914 RMS(Int)=    0.0000010535
 Iter   5:  RMS(Cart)=    0.0000012787 RMS(Int)=    0.0000005201
 Iter   6:  RMS(Cart)=    0.0000006310 RMS(Int)=    0.0000002567
 Iter   7:  RMS(Cart)=    0.0000003114 RMS(Int)=    0.0000001267
 Iter   8:  RMS(Cart)=    0.0000001537 RMS(Int)=    0.0000000626
 Iter   9:  RMS(Cart)=    0.0000000758 RMS(Int)=    0.0000000309
done
Storing new coordinates                 .... done

                                .--------------------.
          ----------------------|Geometry convergence|---------------------
          Item                value                 Tolerance   Converged
          -----------------------------------------------------------------
          Energy change      -0.00000069            0.00000100      YES
          RMS gradient        0.00005085            0.00003000      NO
          MAX gradient        0.00030650            0.00010000      NO
          RMS step            0.00704879            0.00060000      NO
          MAX step            0.01997700            0.00100000      NO
          ....................................................
          Max(Bonds)      0.0001      Max(Angles)    0.03
          Max(Dihed)        1.14      Max(Improp)    0.00
          -----------------------------------------------------------------

The optimization has not yet converged - more geometry cycles are needed


    ---------------------------------------------------------------------------
                         Redundant Internal Coordinates
                            (Angstroem and degrees)

        Definition                    Value    dE/dq     Step     New-Value
    ----------------------------------------------------------------------------
     1. B(C   1,C   0)                1.5277 -0.000031 -0.0001    1.5276   
     2. B(C   2,C   1)                1.4494 -0.000051 -0.0000    1.4494   
     3. B(C   3,C   2)                1.2041 -0.000307 -0.0001    1.2040   
     4. B(C   4,C   3)                1.4376 -0.000043 -0.0001    1.4376   
     5. B(N   5,C   4)                1.5202 -0.000057 -0.0001    1.5201   
     6. B(H   6,C   0)                1.0901 -0.000087 -0.0000    1.0900   
     7. B(H   7,C   0)                1.0905  0.000030  0.0000    1.0905   
     8. B(H   8,C   0)                1.0909  0.000169  0.0001    1.0910   
     9. B(H   9,C   1)                1.0953  0.000043  0.0000    1.0953   
    10. B(H  10,C   1)                1.0953  0.000068  0.0001    1.0954   
    11. B(H  11,C   4)                1.0928  0.000104  0.0001    1.0929   
    12. B(H  12,C   4)                1.0927  0.000056  0.0000    1.0928   
    13. B(H  13,N   5)                1.0225  0.000007  0.0000    1.0225   
    14. B(H  14,N   5)                1.0227  0.000008  0.0000    1.0227   
    15. B(H  15,N   5)                1.0227  0.000125  0.0000    1.0227   
    16. A(C   1,C   0,H   8)          111.19  0.000001    0.00    111.19   
    17. A(H   6,C   0,H   7)          108.23 -0.000007   -0.01    108.22   
    18. A(H   6,C   0,H   8)          108.22  0.000003    0.01    108.23   
    19. A(C   1,C   0,H   7)          111.05  0.000003    0.00    111.06   
    20. A(C   1,C   0,H   6)          109.60 -0.000002    0.01    109.60   
    21. A(H   7,C   0,H   8)          108.45  0.000003   -0.01    108.44   
    22. A(C   2,C   1,H   9)          107.78 -0.000023    0.01    107.78   
    23. A(C   0,C   1,H   9)          110.56  0.000006    0.01    110.57   
    24. A(C   0,C   1,C   2)          113.37  0.000016   -0.00    113.37   
    25. A(H   9,C   1,H  10)          106.00  0.000002   -0.01    105.99   
    26. A(C   2,C   1,H  10)          108.22  0.000000   -0.00    108.22   
    27. A(C   0,C   1,H  10)          110.60 -0.000002    0.00    110.60   
    28. L(C   1,C   2,C   3,C   0, 2) 181.24  0.000006   -0.00    181.24   
    29. L(C   1,C   2,C   3,C   0, 1) 179.06  0.000015   -0.03    179.03   
    30. L(C   2,C   3,C   4,N   5, 2) 179.15 -0.000023    0.02    179.17   
    31. L(C   2,C   3,C   4,N   5, 1) 181.02 -0.000003    0.01    181.04   
    32. A(C   3,C   4,N   5)          109.68  0.000013    0.01    109.69   
    33. A(H  11,C   4,H  12)          108.56  0.000001   -0.02    108.54   
    34. A(N   5,C   4,H  12)          106.29 -0.000005   -0.00    106.29   
    35. A(C   3,C   4,H  12)          112.80  0.000001    0.01    112.81   
    36. A(N   5,C   4,H  11)          106.30 -0.000017   -0.00    106.30   
    37. A(C   3,C   4,H  11)          112.81  0.000005    0.00    112.81   
[...]
     30      -0.057054  -0.041735  -0.011218   0.141300   0.033550  -0.056061
     31       0.154810   0.017569   0.088272  -0.285709  -0.085950   0.077190
     32       0.059387   0.178715  -0.024057   0.012631  -0.015492   0.024301
     33       0.040765   0.028128   0.077797  -0.038602  -0.012395  -0.008364
     34       0.046368   0.084537  -0.441086  -0.024406  -0.152242   0.193576
     35      -0.081476  -0.072256  -0.225530   0.096607   0.047777   0.056400
     36      -0.051232   0.057317  -0.115001  -0.018749  -0.061511   0.050103
     37      -0.048139   0.208250   0.433588   0.126090   0.053015  -0.225467
     38       0.219311  -0.193713   0.288928  -0.000030   0.118146  -0.206868
     39      -0.022350  -0.009692   0.111033   0.163893   0.218606   0.294136
     40      -0.012323  -0.065759   0.223359  -0.063793   0.257546   0.072042
     41       0.152054   0.167071  -0.125691   0.192240  -0.113936   0.105828
     42       0.051119   0.190995   0.038041   0.136097   0.227717   0.268537
     43       0.250143  -0.048764  -0.065634  -0.032023  -0.009297  -0.047511
     44       0.053319   0.133166   0.046377   0.169562   0.128048   0.237861
     45      -0.534128  -0.309427  -0.197730  -0.232853  -0.167035  -0.202032
     46       0.147432   0.261498  -0.051485   0.131526  -0.021618   0.218831
     47      -0.166543  -0.184979   0.012195  -0.089148  -0.005131  -0.121171
                 30         31         32         33         34         35    
      0       0.023241  -0.011530   0.009503  -0.004602  -0.005216   0.002453
      1      -0.010963   0.015185   0.049457   0.003401   0.050759   0.020595
      2      -0.055029   0.007271  -0.069800   0.001943  -0.059265  -0.021129
      3      -0.015860   0.027256   0.002055   0.004790  -0.004352  -0.000657
      4       0.039998   0.023454  -0.006075   0.019756  -0.014832  -0.011060
      5      -0.014061  -0.192766  -0.034988  -0.039273   0.023145   0.036525
      6       0.007712  -0.005255  -0.008992  -0.003569  -0.011517   0.005009
      7      -0.020283   0.041604   0.002843   0.002022   0.007580  -0.002252
      8      -0.020033  -0.054639   0.015714   0.013307   0.040816  -0.011448
      9      -0.034098  -0.032517  -0.004054   0.003399   0.013529   0.000605
     10       0.002834   0.026156  -0.015224   0.006416  -0.043351  -0.000702
     11       0.110739   0.059060   0.030854  -0.005428   0.010514  -0.001521
     12      -0.002010  -0.011062   0.001839  -0.009979   0.016110  -0.001225
     13       0.070869  -0.086649  -0.053045  -0.019829   0.013792  -0.025575
     14      -0.042151   0.063823   0.028047   0.031159  -0.026637   0.018248
     15      -0.012689   0.015666   0.024097  -0.007543  -0.002713   0.009189
     16      -0.036368  -0.023774   0.003854  -0.039520  -0.033627   0.079804
     17       0.055787   0.047123   0.016904   0.014375   0.022651  -0.051688
     18       0.214473   0.051889   0.171577  -0.245093  -0.308053  -0.063982
     19      -0.165630   0.038827   0.235403  -0.235498  -0.295098   0.057200
     20      -0.673160  -0.008073   0.237456  -0.183014  -0.096955  -0.045073
     21       0.195098   0.044861  -0.162978   0.161039   0.176468  -0.091850
     22       0.241487   0.012017   0.114891   0.010687   0.149649   0.303586
     23       0.137972  -0.184789   0.039579  -0.010959   0.285041   0.097058
     24      -0.019189   0.212375  -0.182805   0.146328   0.094574   0.089341
     25      -0.199178   0.119044  -0.398227   0.209552  -0.188479  -0.309195
     26      -0.160849   0.203149   0.021287   0.071681   0.263207   0.193755
     27       0.045104   0.038916   0.135457  -0.012018   0.116186   0.034089
     28      -0.111626  -0.140148  -0.212206   0.064530  -0.103368   0.073765
     29       0.189226   0.185264   0.086803  -0.178910  -0.236695  -0.428636
     30      -0.051458   0.045159   0.048894  -0.022910  -0.001338  -0.011363
     31       0.061172  -0.135273  -0.171502   0.044731   0.022272   0.064127
     32       0.085109  -0.011074   0.184944  -0.047018  -0.110303  -0.092708
     33      -0.022694  -0.189589  -0.042731  -0.095545   0.047392  -0.144600
     34      -0.118540   0.050277   0.198375  -0.020327   0.339909  -0.184004
     35       0.060910   0.530962   0.108062   0.285237  -0.176697   0.447640
     36      -0.032715   0.029065   0.036994   0.006926   0.054671  -0.027636
     37      -0.347584   0.248604   0.033236   0.123608   0.284115  -0.249358
     38       0.033142   0.049951  -0.065207  -0.088255  -0.096457   0.092741
     39       0.024429  -0.383846   0.081898   0.592533  -0.383410   0.022037
     40       0.151409  -0.048184   0.149511  -0.061071  -0.136420  -0.167732
     41      -0.142237  -0.059177  -0.143722   0.214265   0.047330   0.016468
     42       0.076131   0.401597  -0.470365  -0.228204   0.044094  -0.068269
     43       0.016707  -0.067614   0.216542   0.269161   0.075763  -0.356972
     44      -0.073663   0.083037  -0.300110  -0.246525   0.002387   0.119075
     45      -0.002459  -0.073612   0.045029  -0.079565   0.095183   0.060847
     46      -0.005357   0.017476   0.043105   0.003578   0.152731  -0.114020
     47       0.013027  -0.046939  -0.044467  -0.036605  -0.059463   0.071570
                 36         37         38         39         40         41    
      0      -0.006108  -0.010750   0.004093   0.004432   0.013047   0.005737
      1      -0.040645  -0.031476  -0.006138  -0.021401  -0.037839  -0.016081
      2       0.093905   0.071001   0.015507   0.032700   0.028817  -0.004028
      3       0.013321   0.000986  -0.002174  -0.001249   0.022109   0.001073
      4       0.002768   0.020537  -0.000706  -0.000596  -0.056723   0.001365
      5      -0.089476  -0.050961   0.017796   0.021115   0.061818  -0.000095
      6       0.001030   0.002456  -0.001084   0.010381  -0.010473   0.004934
      7       0.013626  -0.008082  -0.008038  -0.027504   0.027752  -0.012312
      8      -0.027181  -0.005958   0.018095   0.013186   0.021552  -0.010002
      9      -0.018657  -0.015842   0.015608   0.008464   0.042410  -0.012578
     10       0.001769   0.004869  -0.012343   0.002749  -0.054262   0.005712
     11       0.041462   0.046830  -0.027215  -0.020644  -0.066039   0.036119
     12       0.000884  -0.005841   0.001620   0.004760   0.015917  -0.001055
     13      -0.029866  -0.018736  -0.004998   0.018842   0.023996  -0.002021
     14       0.013309   0.018539   0.007730  -0.017165  -0.017041   0.008737
     15       0.007671  -0.001099  -0.002902  -0.007769  -0.006313   0.004342
     16       0.030208  -0.007586  -0.026155  -0.033765  -0.009515  -0.033318
     17       0.003009   0.017351   0.002788   0.007870  -0.008242   0.034522
     18      -0.119355  -0.032602   0.243859  -0.093907  -0.304056   0.186354
     19      -0.164603   0.654716  -0.185358   0.081710   0.413956  -0.067363
     20       0.004470  -0.245341   0.184309   0.046527  -0.450099   0.069335
     21      -0.238470   0.086459  -0.166386  -0.156794  -0.114474  -0.007694
     22       0.678878  -0.160111   0.379066   0.171143   0.285659   0.031018
     23      -0.120186   0.022271  -0.076507  -0.081308  -0.214884  -0.032817
     24       0.075860  -0.011338  -0.144479  -0.011507   0.018580  -0.119043
     25       0.089756  -0.224418  -0.002215   0.147415   0.086185   0.186752
     26       0.079475   0.109540  -0.002873  -0.136767  -0.136244  -0.343867
     27       0.017581   0.030255  -0.046563   0.037396  -0.028825   0.075082
     28      -0.010525   0.052867   0.018507   0.070139  -0.055971   0.048962
     29      -0.042853  -0.296798   0.174418  -0.429503   0.270003  -0.495849
     30       0.065840   0.008122  -0.022401  -0.037449   0.008651  -0.030029
     31      -0.203811   0.106015   0.292755  -0.061660  -0.002852   0.110506
     32       0.112936  -0.377989  -0.645454   0.401625  -0.024826  -0.127629
     33       0.179336   0.092134  -0.032871  -0.037462  -0.104882  -0.056636
     34       0.068073  -0.002991  -0.130698  -0.260721   0.205484   0.441287
     35      -0.482727  -0.261669   0.108560   0.154518   0.227412   0.044576
     36       0.017577   0.008947  -0.000577   0.008142  -0.000036  -0.015732
     37      -0.083329  -0.019626  -0.006024  -0.074347   0.268416   0.161972
     38      -0.022797  -0.007127  -0.005458  -0.005838   0.004271   0.077381
     39       0.130604   0.033704  -0.088429  -0.266081  -0.093476   0.042055
     40      -0.024557  -0.092350   0.026906   0.087688   0.142797   0.262846
     41       0.030995   0.032074  -0.012146  -0.154868  -0.022265  -0.244742
     42      -0.090103   0.098533   0.061277   0.195710  -0.186161  -0.002702
     43      -0.118713   0.188222   0.269184   0.413864  -0.079775  -0.170462
     44       0.034778  -0.138110  -0.106562  -0.156569   0.095420   0.064948
     45      -0.031904   0.046502   0.021671   0.150715  -0.096715  -0.109494
     46      -0.027178  -0.005050   0.085265   0.226533   0.025050  -0.264456
     47      -0.017435  -0.024659  -0.037281  -0.095023   0.018921   0.142780
                 42         43         44         45         46         47    
      0       0.050506   0.052966  -0.011122  -0.019540  -0.010702   0.247277
      1      -0.022914  -0.006924  -0.000128   0.027952   0.050526  -0.232953
      2      -0.029227  -0.024912   0.005910   0.009798  -0.014156  -0.129541
      3      -0.003465   0.010796  -0.006162  -0.005371  -0.047737  -0.154462
      4       0.023776   0.035636   0.007511   0.035298   0.031730   0.215553
      5      -0.039382  -0.059603   0.026356  -0.002329   0.080646  -0.006645
      6       0.027692   0.058597  -0.015282   0.032496   0.081335  -0.097609
      7      -0.039552  -0.124680   0.027228  -0.049115  -0.089161   0.136370
      8      -0.043598   0.008191   0.012378   0.010719  -0.097573   0.190154
      9      -0.017252  -0.003345  -0.007860   0.011559  -0.025723   0.005403
     10       0.011846   0.027786   0.020589   0.008199   0.011906   0.032231
     11       0.058605   0.023037  -0.009725  -0.022376   0.059856  -0.066803
     12       0.001933   0.014983  -0.004070   0.004353   0.025294  -0.007252
     13       0.007392   0.060287  -0.008441   0.012637   0.047911  -0.094317
     14       0.015594  -0.011965   0.003198   0.031077   0.011482   0.012265
     15      -0.020023  -0.023144  -0.001388  -0.016367  -0.024462   0.037264
     16      -0.019294  -0.004087   0.026881  -0.035863  -0.002917   0.001594
     17       0.035580  -0.025775  -0.014027  -0.047056   0.009460   0.012769
     18      -0.251974  -0.380149   0.078517  -0.009571  -0.201319  -0.357226
     19       0.115918   0.091028   0.033736  -0.017625   0.001555  -0.007937
     20       0.130526   0.139728  -0.016656  -0.011636   0.034642   0.033210
     21      -0.101464  -0.331607   0.031358   0.034720  -0.013647  -0.045932
     22      -0.029172   0.036508   0.055819  -0.035483  -0.016866  -0.075606
     23       0.187014   0.178934  -0.018867  -0.098544  -0.132078   0.096307
     24      -0.228916  -0.167029  -0.077914   0.087510  -0.072822  -0.131076
     25       0.213923  -0.013292   0.101989   0.044920   0.067392   0.135713
     26      -0.163700   0.049354  -0.411683  -0.045142  -0.030806   0.107859
     27       0.051310  -0.070712   0.391781   0.034541   0.059768   0.064895
     28      -0.079525   0.024527  -0.586295  -0.051875   0.095156   0.006243
     29       0.013639   0.198611  -0.057629   0.008959   0.009005  -0.039695
     30      -0.092922  -0.133843   0.017642   0.131914   0.421672   0.238871
     31       0.228554   0.273729  -0.037081  -0.193912  -0.649543  -0.406041
     32      -0.085961   0.148165  -0.017144  -0.109893  -0.342041  -0.249547
     33       0.002581  -0.050737   0.002345  -0.071857  -0.012864   0.048655
     34      -0.127603   0.260514  -0.036167   0.342903  -0.114147  -0.044265
     35       0.038776   0.078636   0.011893  -0.002193   0.083671  -0.006320
     36       0.041714  -0.043774   0.026383  -0.274524   0.112296   0.008775
     37       0.064942  -0.113683   0.004687  -0.289512   0.039154  -0.319361
     38      -0.121368   0.043560  -0.054895   0.681146  -0.290357   0.043372
     39       0.050332  -0.057913   0.001174  -0.007200  -0.070638  -0.108433
     40       0.020721  -0.218553  -0.441951  -0.027158   0.015107   0.104647
     41       0.063851   0.137717   0.270604   0.110954  -0.030583  -0.216015
     42      -0.201765   0.161339   0.096221  -0.051151  -0.035938   0.046163
     43      -0.398323   0.175693   0.060108  -0.006575   0.057088   0.001358
     44       0.120097  -0.081977  -0.004040  -0.045579   0.013561   0.060722
     45       0.301387  -0.200640  -0.018028   0.073081  -0.114292  -0.203370
     46       0.490449  -0.365595  -0.085543   0.315948  -0.084848  -0.094700
     47      -0.224402   0.242970   0.039144  -0.154598   0.073877  -0.000531


-----------
IR SPECTRUM
-----------

 Mode    freq (cm**-1)   T**2         TX         TY         TZ
-------------------------------------------------------------------
  38:      7604.40  40661.637587  (-65.263829 -178.945393 -66.187737)
  39:     38200.34  233988.340407  (-106.668879 -130.091671 453.526458)
  40:     47902.56  1444185.235462  (-472.593773 -838.681668 719.342353)
  41:     56849.96  86656.300123  (-55.057953 -189.158245 218.732897)
  42:     92353.58  758969.204035  (362.721380 -46.665713 -790.711525)
  43:    106336.50  1944088.118186  (408.495234 1153.704341 -667.971598)
  44:    142668.11  24580.261871  ( 45.877618 117.639206 -92.932897)
  45:    175810.92  2961086.752591  (762.772457 1450.609650 -524.401158)
  46:    214215.39  6197155.639337  (1271.155607 2140.068238  37.775664)
  47:    216080.81  9608589.729018  (-1509.578379 -2169.322741 1619.815327)

The first frequency considered to be a vibration is 38
The total number of vibrations considered is 10


--------------------------
THERMOCHEMISTRY AT 298.15K
--------------------------

Temperature         ... 298.15 K
Pressure            ... 1.00 atm
Total Mass          ... 84.14 AMU

Throughout the following assumptions are being made:
  (1) The electronic state is orbitally nondegenerate
  (2) There are no thermally accessible electronically excited states
  (3) Hindered rotations indicated by low frequency modes) are not
      treated as such but are treated as vibrations and this may
      case some error
  (4) All equations used are the standard statistical mechanics
      equations for an ideal gas
  (5) All vibrations are strinctly harmonic


------------
INNER ENERGY
------------

The inner energy is: U= E(el) + E(ZPE) + E(vib) + E(rot) + E(trans)
    E(el)   - is the total energy from the electronic structure calculation
              = E(kin-el) + E(nuc-el) + E(el-el) + E(nuc-nuc)
    E(ZPE)  - the the zero temperature vibrational energy from the frequency calculation
    E(vib)  - the the finite temperature correction to E(ZPE) due to population
              of excietd vibrational states
    E(rot)  - is the rotational thermal energy
    E(trans)- is the translational thermal energy

Summary of contributions to the inner energy U:
Electronic energy                ...   -250.78185064 Eh
Zero point energy                ...      2.50147945 Eh    1569.70 kcal/mol
Thermal vibrational correction   ...      0.00000000 Eh       0.00 kcal/mol
Thermal rotational correction    ...      0.00141627 Eh       0.89 kcal/mol
Thermal translational correction ...      0.00141627 Eh       0.89 kcal/mol
-----------------------------------------------------------------------
Total thermal energy                   -248.27753865 Eh


Summary of corrections to the electronic energy:
(perhaps to be used in another calculation)
Total thermal correction                  0.00283254 Eh       1.78 kcal/mol
Non-thermal (ZPE) correction              2.50147945 Eh    1569.70 kcal/mol
-----------------------------------------------------------------------
Total correction                          2.50431200 Eh    1571.48 kcal/mol


--------
ENTHALPY
--------

The enthalpy is H = U + kB*T
                kB is Boltzmann's constant
Total free energy                 ...   -248.27753865 Eh 
Thermal Enthalpy correction       ...      0.00094421 Eh       0.59 kcal/mol
-----------------------------------------------------------------------
Total Enthalpy                    ...   -248.27659444 Eh


-------
ENTROPY
-------

The entropy contributions are T*S = T*(S(el)+S(vib)+S(rot)+S(trans)
     S(el)   - electronic entropy
     S(vib)  - vibrational entropy
     S(rot)  - rotational entropy
     S(trans)- translational entropy
The entropies will be listed as mutliplied by the temperature to get
units of energy

Electronic entropy                ...      0.00000000 Eh      0.00 kcal/mol
Vibrational entropy               ...      0.00000000 Eh      0.00 kcal/mol
Rotational entropy                ...      0.01190607 Eh      7.47 kcal/mol
Translational entropy             ...      0.01862670 Eh     11.69 kcal/mol
-----------------------------------------------------------------------
Final entropy term                ...      0.03053277 Eh     19.16 kcal/mol


CAUTION: The rotational entropy is not quite correctly treated here
         because it includes a symmetry number that is not yet correctly
         implemented in ORCA!
For a nonlinear molecule the correct rotational entropy is:
    S(rot) = R*(ln(qrot/sn)+1.5)
    R    = 8.31441 J/mol/K = 1.987191683e-3 kcal/mol/K
    qrot = 200497.8086406
    sn is the rotational symmetry number. We have assumed 3 here
       if it is different for your molecule then you should correct
       the printed rotational entropy by manually evaluating the equation
       as given above

For convenience we print out the resulting values for sn=1 - 12:
 sn= 1  qrot/sn=  200497.8086 T*S(rot)=     8.12 kcal/mol T*S(tot)=    19.81 kcal/mol
 sn= 2  qrot/sn=  100248.9043 T*S(rot)=     7.71 kcal/mol T*S(tot)=    19.40 kcal/mol
 sn= 3  qrot/sn=   66832.6029 T*S(rot)=     7.47 kcal/mol T*S(tot)=    19.16 kcal/mol
 sn= 4  qrot/sn=   50124.4522 T*S(rot)=     7.30 kcal/mol T*S(tot)=    18.99 kcal/mol
 sn= 5  qrot/sn=   40099.5617 T*S(rot)=     7.17 kcal/mol T*S(tot)=    18.86 kcal/mol
 sn= 6  qrot/sn=   33416.3014 T*S(rot)=     7.06 kcal/mol T*S(tot)=    18.75 kcal/mol
 sn= 7  qrot/sn=   28642.5441 T*S(rot)=     6.97 kcal/mol T*S(tot)=    18.66 kcal/mol
 sn= 8  qrot/sn=   25062.2261 T*S(rot)=     6.89 kcal/mol T*S(tot)=    18.58 kcal/mol
 sn= 9  qrot/sn=   22277.5343 T*S(rot)=     6.82 kcal/mol T*S(tot)=    18.51 kcal/mol
 sn=10  qrot/sn=   20049.7809 T*S(rot)=     6.76 kcal/mol T*S(tot)=    18.45 kcal/mol
 sn=11  qrot/sn=   18227.0735 T*S(rot)=     6.70 kcal/mol T*S(tot)=    18.39 kcal/mol
 sn=12  qrot/sn=   16708.1507 T*S(rot)=     6.65 kcal/mol T*S(tot)=    18.34 kcal/mol


-------------------
GIBBS FREE ENTHALPY
-------------------

The Gibbs free enthalpy is G = H - T*S

Total enthalpy                    ...   -248.27659444 Eh 
Total entropy correction          ...     -0.03053277 Eh    -19.16 kcal/mol
-----------------------------------------------------------------------
Final Gibbs free enthalpy         ...   -248.30712721 Eh

For completeness - the Gibbs free enthalpy minus the electronic energy
G-E(el)                           ...      2.47472343 Eh   1552.91 kcal/mol


Timings for individual modules:

Sum of individual times         ...     1791.784 sec (=  29.863 min)
GTO integral calculation        ...       22.099 sec (=   0.368 min)   1.2 %
SCF iterations                  ...      261.220 sec (=   4.354 min)  14.6 %
SCF Gradient evaluation         ...      162.298 sec (=   2.705 min)   9.1 %
Geometry relaxation             ...        0.552 sec (=   0.009 min)   0.0 %
Analytical frequency calculation...     1345.615 sec (=  22.427 min)  75.1 %
                             ****ORCA TERMINATED NORMALLY****
TOTAL RUN TIME: 0 days 0 hours 29 minutes 53 seconds 647 msec
