
                                 *****************
                                 * O   R   C   A *
                                 *****************

           --- An Ab Initio, DFT and Semiempirical electronic structure package ---

                  #######################################################
                  #                        -***-                        #
                  #  Department of molecular theory and spectroscopy    #
                  #              Directorship: Frank Neese              #
                  # Max Planck Institute for Chemical Energy Conversion #
                  #                  D-45470 Muelheim/Ruhr              #
                  #                       Germany                       #
                  #                                                     #
                  #                  All rights reserved                #
                  #                        -***-                        #
                  #######################################################


                         Program Version 3.0.3 - RELEASE   -


 With contributions from (in alphabetic order):
   Ute Becker             : Parallelization
   Dmytro Bykov           : SCF Hessian
   Dmitry Ganyushin       : Spin-Orbit,Spin-Spin,Magnetic field MRCI
   Andreas Hansen         : Spin unrestricted coupled pair/coupled cluster methods
   Dimitrios Liakos       : Extrapolation schemes; parallel MDCI
   Robert Izsak           : Overlap fitted RIJCOSX, COSX-SCS-MP3
   Christian Kollmar      : KDIIS, OOCD, Brueckner-CCSD(T), CCSD density
   Simone Kossmann        : Meta GGA functionals, TD-DFT gradient, OOMP2, MP2 Hessian
   Taras Petrenko         : DFT Hessian,TD-DFT gradient, ASA and ECA modules, normal mode analysis, Resonance Raman, ABS, FL, XAS/XES, NRVS
   Christoph Reimann      : Effective Core Potentials
   Michael Roemelt        : Restricted open shell CIS
   Christoph Riplinger    : Improved optimizer, TS searches, QM/MM, DLPNO-CCSD
   Barbara Sandhoefer     : DKH picture change effects
   Igor Schapiro          : Molecular dynamics
   Kantharuban Sivalingam : CASSCF convergence, NEVPT2
   Boris Wezisla          : Elementary symmetry handling
   Frank Wennmohs         : Technical directorship


 We gratefully acknowledge several colleagues who have allowed us to
 interface, adapt or use parts of their codes:
   Stefan Grimme, W. Hujo, H. Kruse, T. Risthaus : VdW corrections, initial TS optimization,
                                                   DFT functionals, gCP
   Ed Valeev                                     : LibInt (2-el integral package), F12 methods
   Garnet Chan, S. Sharma, R. Olivares           : DMRG
   Ulf Ekstrom                                   : XCFun DFT Library
   Mihaly Kallay                                 : mrcc  (arbitrary order and MRCC methods)
   Andreas Klamt, Michael Diedenhofen            : otool_cosmo (COSMO solvation model)
   Frank Weinhold                                : gennbo (NPA and NBO analysis)
   Christopher J. Cramer and Donald G. Truhlar   : smd solvation model


 Your calculation uses the libint2 library for the computation of 2-el integrals
 For citations please refer to: http://libint.valeyev.net

 This ORCA versions uses:
   CBLAS   interface :  Fast vector & matrix operations
   LAPACKE interface :  Fast linear algebra routines
   SCALAPACK package :  Parallel linear algebra routines


Your calculation utilizes the basis: Ahlrichs-TZV
Cite in your paper:
H - Kr: A. Schaefer, H. Horn and R. Ahlrichs, J. Chem. Phys. 97, 2571 (1992).

The def2-TZV basis will be loaded
Cite in your paper:
 	F. Weigend, R. Ahlrichs, Phys. Chem. Chem. Phys. 2005, 7, 3297.

================================================================================
                                        WARNINGS
                       Please study these warnings very carefully!
================================================================================
Now building the actual basis set
WARNING: Geometry optimizations can change the point-group symmetry!

WARNING: Geometry Optimization
  ===> : Switching off AutoStart
         For restart on a previous wavefunction, please use MOREAD


INFO   : the flag for use of LIBINT has been found!

================================================================================
                                       INPUT FILE
================================================================================
NAME = 1036_+.inp
|  1> ! NORI PBE0 def2-TZVP UseSym TightOPT Freq TightSCF Grid3 FinalGrid5 XYZFile
|  2> % pal
|  3>     nprocs 8
|  4> end
|  5> %method
|  6>     SymThresh 5.0e-2
|  7> end
|  8> % geom 
|  9>     MaxIter 10
| 10> end 
| 11> % maxcore 2000
| 12> % output
| 13>     printlevel mini
| 14>     print[ P_Basis ] 0
| 15>     print[ P_SCFInfo ] 1
| 16>     print[ P_SCFIterInfo ] 1
| 17>     print[ P_OrbEn ] 0
| 18>     print[ P_Cartesian ] 0
| 19> end
| 20> % elprop
| 21>     Dipole false
| 22> end
| 23> *xyz 1 1
| 24>  C        1.3288047775     0.3556498189    -0.6765876123 
| 25>  C        2.8163060042     0.1191678777    -0.6166076503 
| 26>  N        3.2376395251    -0.3170617303     0.7622615361 
| 27>  C        4.6916676832    -0.6105706038     0.9034007817 
| 28>  C        5.0807363347    -0.9393805440     2.3395530023 
| 29>  O        6.0135628736    -1.6352255971     2.5789533378 
| 30>  H        1.0642382869     0.6784450942    -1.6843405400 
| 31>  H        1.0103682712     1.1425215817     0.0115888557 
| 32>  H        0.7603392991    -0.5540380178    -0.4679856331 
| 33>  H        3.3894871352     1.0208725564    -0.8386196506 
| 34>  H        3.1384518876    -0.6700977802    -1.2973304752 
| 35>  H        2.6942252322    -1.1459653272     1.0188201944 
| 36>  H        2.9640245877     0.4095673402     1.4297503652 
| 37>  H        5.2417756044     0.2785059002     0.5820155641 
| 38>  H        4.9502086117    -1.4407041561     0.2461394837 
| 39>  H        4.4666238856    -0.4715464128     3.1403784405 
| 40> *
| 41> 
| 42>                          ****END OF INPUT****
================================================================================

The point group is C1 - hence turning off symmetry
If this is a round-off problem, please increase the symmetry
        detection tolerance (%method SymThresh)


                       *****************************
                       * Geometry Optimization Run *
                       *****************************

Geometry optimization settings:
Update method            Update   .... BFGS
Choice of coordinates    CoordSys .... Redundant Internals
Initial Hessian          InHess   .... Almoef's Model

Convergence Tolerances:
Energy Change            TolE     ....  1.0000e-06 Eh
Max. Gradient            TolMAXG  ....  1.0000e-04 Eh/bohr
RMS Gradient             TolRMSG  ....  3.0000e-05 Eh/bohr
Max. Displacement        TolMAXD  ....  1.0000e-03 bohr
RMS Displacement         TolRMSD  ....  6.0000e-04 bohr

------------------------------------------------------------------------------
                        ORCA OPTIMIZATION COORDINATE SETUP
------------------------------------------------------------------------------

The optimization will be done in new redundant internal coordinates
Making redundant internal coordinates   ...  (new redundants) done
Evaluating the initial hessian          ...  (Almloef) done
Evaluating the coordinates              ...  done
Calculating the B-matrix                .... done
Calculating the G-matrix                .... done
Diagonalizing the G-matrix              .... done
Small eigenvalue found = 2.383e-02
The first mode is                       ....   33
The number of degrees of freedom        ....   42

    -----------------------------------------------------------------
                    Redundant Internal Coordinates


    -----------------------------------------------------------------
         Definition                    Initial Value    Approx d2E/dq
    -----------------------------------------------------------------
      1. B(C   1,C   0)                  1.5074         0.405951   
      2. B(N   2,C   1)                  1.5064         0.364957   
      3. B(C   3,N   2)                  1.4901         0.387475   
      4. B(C   4,C   3)                  1.5238         0.382155   
      5. B(O   5,C   4)                  1.1881         1.174706   
      6. B(H   6,C   0)                  1.0908         0.359096   
      7. B(H   7,C   0)                  1.0928         0.356448   
      8. B(H   8,C   0)                  1.0928         0.356422   
      9. B(H   9,C   1)                  1.0913         0.358408   
     10. B(H  10,C   1)                  1.0909         0.358888   
     11. B(H  11,N   2)                  1.0238         0.411291   
     12. B(H  12,N   2)                  1.0239         0.411149   
     13. B(H  13,C   3)                  1.0938         0.355128   
     14. B(H  14,C   3)                  1.0899         0.360186   
     15. B(H  15,C   4)                  1.1124         0.331714   
     16. A(C   1,C   0,H   7)          112.0532         0.328235   
     17. A(C   1,C   0,H   8)          112.0332         0.328231   
     18. A(H   6,C   0,H   7)          107.3407         0.290247   
     19. A(H   7,C   0,H   8)          109.1242         0.289907   
     20. A(C   1,C   0,H   6)          108.8169         0.328636   
     21. A(H   6,C   0,H   8)          107.2497         0.290244   
     22. A(N   2,C   1,H  10)          106.2046         0.320976   
     23. A(C   0,C   1,H  10)          112.3385         0.328605   
     24. A(C   0,C   1,H   9)          112.3700         0.328532   
     25. A(N   2,C   1,H   9)          106.1766         0.320906   
     26. A(H   9,C   1,H  10)          108.4065         0.290470   
     27. A(C   0,C   1,N   2)          110.9696         0.364800   
     28. A(H  11,N   2,H  12)          105.6261         0.298374   
     29. A(C   1,N   2,H  12)          108.4498         0.325437   
     30. A(C   3,N   2,H  11)          109.5558         0.328681   
     31. A(C   1,N   2,H  11)          108.3840         0.325455   
     32. A(C   1,N   2,C   3)          114.6258         0.359662   
     33. A(C   3,N   2,H  12)          109.8040         0.328663   
     34. A(N   2,C   3,C   4)          112.3911         0.364767   
     35. A(H  13,C   3,H  14)          108.8204         0.290216   
     36. A(C   4,C   3,H  14)          110.0856         0.325544   
     37. A(N   2,C   3,H  14)          108.9280         0.324333   
     38. A(C   4,C   3,H  13)          108.8994         0.324788   
     39. A(N   2,C   3,H  13)          107.6280         0.323581   
     40. A(O   5,C   4,H  15)          122.3240         0.385901   
     41. A(C   3,C   4,H  15)          116.5390         0.321176   
     42. A(C   3,C   4,O   5)          121.1133         0.443459   
     43. D(H   9,C   1,C   0,H   8)    179.1551         0.013062   
     44. D(N   2,C   1,C   0,H   7)     60.9082         0.013062   
     45. D(H  10,C   1,C   0,H   7)    179.6325         0.013062   
     46. D(H   9,C   1,C   0,H   6)     60.7392         0.013062   
     47. D(N   2,C   1,C   0,H   8)    -62.1353         0.013062   
     48. D(H   9,C   1,C   0,H   7)    -57.8014         0.013062   
     49. D(H  10,C   1,C   0,H   8)     56.5890         0.013062   
     50. D(N   2,C   1,C   0,H   6)    179.4488         0.013062   
     51. D(H  10,C   1,C   0,H   6)    -61.8268         0.013062   
     52. D(H  11,N   2,C   1,H   9)    178.0579         0.012230   
     53. D(C   3,N   2,C   1,H  10)     56.0228         0.012230   
     54. D(C   3,N   2,C   1,H   9)    -59.2341         0.012230   
     55. D(C   3,N   2,C   1,C   0)    178.3841         0.012230   
     56. D(H  11,N   2,C   1,H  10)    -66.6852         0.012230   
     57. D(H  12,N   2,C   1,H  10)    179.1035         0.012230   
     58. D(H  12,N   2,C   1,H   9)     63.8466         0.012230   
     59. D(H  12,N   2,C   1,C   0)    -58.5352         0.012230   
     60. D(H  11,N   2,C   1,C   0)     55.6761         0.012230   
     61. D(H  14,C   3,N   2,H  11)     59.8130         0.013736   
     62. D(H  14,C   3,N   2,C   1)    -62.2600         0.013736   
     63. D(H  13,C   3,N   2,H  12)    -66.7819         0.013736   
     64. D(H  13,C   3,N   2,H  11)    177.6407         0.013736   
     65. D(H  13,C   3,N   2,C   1)     55.5676         0.013736   
     66. D(C   4,C   3,N   2,H  12)     53.1184         0.013736   
     67. D(C   4,C   3,N   2,H  11)    -62.4590         0.013736   
     68. D(H  14,C   3,N   2,H  12)    175.3904         0.013736   
     69. D(C   4,C   3,N   2,C   1)    175.4679         0.013736   
     70. D(H  15,C   4,C   3,N   2)    -28.9826         0.010890   
     71. D(O   5,C   4,C   3,H  14)     31.1354         0.010890   
     72. D(O   5,C   4,C   3,H  13)    -88.0908         0.010890   
     73. D(O   5,C   4,C   3,N   2)    152.7497         0.010890   
     74. D(H  15,C   4,C   3,H  14)   -150.5969         0.010890   
     75. D(H  15,C   4,C   3,H  13)     90.1769         0.010890   
    -----------------------------------------------------------------

Number of atoms                         .... 16
Number of degrees of freedom            .... 75

         *************************************************************
         *                GEOMETRY OPTIMIZATION CYCLE   1            *
         *************************************************************


           ************************************************************
           *        Program running with 8 parallel MPI-processes     *
           *              working on a common directory               *
           ************************************************************
           ************************************************************
           *              Shut down parallel processing               *
           ************************************************************


           ************************************************************
           *        Program running with 8 parallel MPI-processes     *
           *              working on a common directory               *
           ************************************************************
------------
SCF SETTINGS
------------
Hamiltonian:
 Density Functional     Method          .... DFT(GTOs)
 Exchange Functional    Exchange        .... PBE
   PBE kappa parameter  XKappa          ....  0.804000
 Correlation Functional Correlation     .... PBE
 LDA part of GGA corr.  LDAOpt          .... PW91-LDA
 Gradients option       PostSCFGGA      .... off
 Hybrid DFT is turned on
   Fraction HF Exchange ScalHFX         ....  0.250000
   Scaling of DF-GGA-X  ScalDFX         ....  0.750000
   Scaling of DF-GGA-C  ScalDFC         ....  1.000000
   Scaling of DF-LDA-C  ScalLDAC        ....  1.000000
   Perturbative correction              ....  0.000000
   NL short-range parameter             ....  6.900000


General Settings:
 Integral files         IntName         .... 1036_+
 Hartree-Fock type      HFTyp           .... RHF
 Total Charge           Charge          ....    1
 Multiplicity           Mult            ....    1
 Number of Electrons    NEL             ....   48
 Basis Dimension        Dim             ....  246
 Nuclear Repulsion      ENuc            ....    241.6445852503 Eh

Convergence Acceleration:
 DIIS                   CNVDIIS         .... on
   Start iteration      DIISMaxIt       ....    12
   Startup error        DIISStart       ....  0.200000
   # of expansion vecs  DIISMaxEq       ....     5
   Bias factor          DIISBfac        ....   1.050
   Max. coefficient     DIISMaxC        ....  10.000
 Newton-Raphson         CNVNR           .... off
 SOSCF                  CNVSOSCF        .... on
   Start iteration      SOSCFMaxIt      ....   150
   Startup grad/error   SOSCFStart      ....  0.003300
 Level Shifting         CNVShift        .... on
   Level shift para.    LevelShift      ....    0.2500
   Turn off err/grad.   ShiftErr        ....    0.0010
 Zerner damping         CNVZerner       .... off
 Static damping         CNVDamp         .... on
   Fraction old density DampFac         ....    0.7000
   Max. Damping (<1)    DampMax         ....    0.9800
   Min. Damping (>=0)   DampMin         ....    0.0000
   Turn off err/grad.   DampErr         ....    0.1000
 Fernandez-Rico         CNVRico         .... off

SCF Procedure:
 Maximum # iterations   MaxIter         ....   125
 SCF integral mode      SCFMode         .... Direct
   Integral package                     .... LIBINT
 Reset frequeny         DirectResetFreq ....    20
 Integral Threshold     Thresh          ....  2.500e-11 Eh
 Primitive CutOff       TCut            ....  2.500e-12 Eh

Convergence Tolerance:
 Convergence Check Mode ConvCheckMode   .... Total+1el-Energy
 Energy Change          TolE            ....  1.000e-08 Eh
 1-El. energy change                    ....  1.000e-05 Eh
 Orbital Gradient       TolG            ....  1.000e-05
 Orbital Rotation angle TolX            ....  1.000e-05
 DIIS Error             TolErr          ....  5.000e-07


Diagonalization of the overlap matrix:
Smallest eigenvalue                        ... 3.631e-04
Time for diagonalization                   ...    0.079 sec
Threshold for overlap eigenvalues          ... 1.000e-08
Number of eigenvalues below threshold      ... 0
Time for construction of square roots      ...    0.011 sec
Total time needed                          ...    0.090 sec

-------------------
DFT GRID GENERATION
-------------------

General Integration Accuracy     IntAcc      ...  4.340
Radial Grid Type                 RadialGrid  ... Gauss-Chebyshev
Angular Grid (max. acc.)         AngularGrid ... Lebedev-194
Angular grid pruning method      GridPruning ... 3 (G Style)
Weight generation scheme         WeightScheme... Becke
Basis function cutoff            BFCut       ...    1.0000e-11
Integration weight cutoff        WCut        ...    1.0000e-14
Grids for H and He will be reduced by one unit

# of grid points (after initial pruning)     ...  35088 (   0.0 sec)
# of grid points (after weights+screening)   ...  32574 (   0.0 sec)
nearest neighbour list constructed           ...    0.0 sec
Grid point re-assignment to atoms done       ...    0.0 sec
Grid point division into batches done        ...    0.1 sec
Reduced shell lists constructed in    0.1 sec

Total number of grid points                  ...    32574
Total number of batches                      ...      517
Average number of points per batch           ...       63
Average number of grid points per atom       ...     2036
Average number of shells per batch           ...    82.64 (77.96%)
Average number of basis functions per batch  ...   190.06 (77.26%)
Average number of large shells per batch     ...    69.05 (83.55%)
Average number of large basis fcns per batch ...   158.86 (83.59%)
Maximum spatial batch extension              ...   2.58,  2.65,  2.21 au
Average spatial batch extension              ...   0.15,  0.14,  0.14 au

Time for grid setup =    0.194 sec

Loading Hartree-Fock densities                     ... done
Calculating cut-offs                               ... done
Setting up the integral package                    ... done
Initializing the effective Hamiltonian             ... done
Starting the Coulomb interaction                   ... done (   0.0 sec)
Reading the grid                                   ... done
Mapping shells                                     ... done
Starting the XC term evaluation                    ... done (   0.2 sec)
  promolecular density results
     # of electrons  =     48.996888975
     EX              =    -38.121545931
     EC              =     -1.606904194
     EX+EC           =    -39.728450125
Transforming the Hamiltonian                       ... done (   0.0 sec)
Diagonalizing the Hamiltonian                      ... done (   0.0 sec)
Back transforming the eigenvectors                 ... done (   0.0 sec)
Now organizing SCF variables                       ... done
--------------
SCF ITERATIONS
--------------
ITER       Energy         Delta-E        Max-DP      RMS-DP      [F,P]     Damp
               ***  Starting incremental Fock matrix formation  ***
  0   -287.7550985949   0.000000000000 0.10962237  0.00123691  0.2551913 0.7000
  1   -287.8349116012  -0.079813006294 0.08960758  0.00091163  0.0918508 0.7000
                               ***Turning on DIIS***
  2   -287.8634812760  -0.028569674808 0.09329599  0.00127721  0.0364064 0.0000
  3   -287.9147718635  -0.051290587511 0.08775363  0.00078585  0.0483567 0.0000
  4   -287.9228973375  -0.008125474043 0.02091658  0.00021467  0.0227117 0.0000
                      *** Initiating the SOSCF procedure ***
                           *** Shutting down DIIS ***
                      *** Re-Reading the Fockian *** 
                      *** Removing any level shift *** 
ITER      Energy       Delta-E        Grad      Rot      Max-DP    RMS-DP
  5   -287.92392099  -0.0010236556  0.000465  0.000465  0.008074  0.000075
               *** Restarting incremental Fock matrix formation ***
  6   -287.92394674  -0.0000257487  0.000245  0.000684  0.003152  0.000035
  7   -287.92394761  -0.0000008713  0.000424  0.000486  0.002324  0.000022
  8   -287.92394885  -0.0000012383  0.000171  0.000180  0.001066  0.000011
  9   -287.92394899  -0.0000001398  0.000060  0.000049  0.000243  0.000003
 10   -287.92394915  -0.0000001586  0.000011  0.000026  0.000236  0.000002
 11   -287.92394916  -0.0000000054  0.000004  0.000004  0.000010  0.000000
                  ***Gradient check signals convergence***
              ***Rediagonalizing the Fockian in SOSCF/NRSCF***

               *****************************************************
               *                     SUCCESS                       *
               *           SCF CONVERGED AFTER  12 CYCLES          *
               *****************************************************

Setting up the final grid:

General Integration Accuracy     IntAcc      ...  5.010
Radial Grid Type                 RadialGrid  ... Gauss-Chebyshev
Angular Grid (max. acc.)         AngularGrid ... Lebedev-434
Angular grid pruning method      GridPruning ... 3 (G Style)
Weight generation scheme         WeightScheme... Becke
Basis function cutoff            BFCut       ...    1.0000e-11
Integration weight cutoff        WCut        ...    1.0000e-14
Grids for H and He will be reduced by one unit

# of grid points (after initial pruning)     ... 131144 (   0.0 sec)
# of grid points (after weights+screening)   ... 120178 (   0.1 sec)
nearest neighbour list constructed           ...    0.0 sec
Grid point re-assignment to atoms done       ...    0.0 sec
Grid point division into batches done        ...    0.9 sec
Reduced shell lists constructed in    1.1 sec

Total number of grid points                  ...   120178
Total number of batches                      ...     1887
Average number of points per batch           ...       63
Average number of grid points per atom       ...     7511
Average number of shells per batch           ...    82.78 (78.09%)
Average number of basis functions per batch  ...   191.25 (77.75%)
Average number of large shells per batch     ...    68.32 (82.54%)
Average number of large basis fcns per batch ...   158.00 (82.61%)
Maximum spatial batch extension              ...   1.67,  1.80,  2.08 au
Average spatial batch extension              ...   0.10,  0.09,  0.09 au

Final grid set up in    1.3 sec
Final integration                            ... done (   0.6 sec)
Change in XC energy                          ...     0.000518157
Integrated number of electrons               ...    48.000019798
Previous integrated no of electrons          ...    48.001362281
Total Energy       :         -287.92343100 Eh           -7834.79487 eV
  Last Energy change         ...   -1.0030e-09  Tolerance :   1.0000e-08
  Last MAX-Density change    ...    4.0811e-05  Tolerance :   1.0000e-07
             **** THE GBW FILE WAS UPDATED (1036_+.gbw) ****
             **** DENSITY FILE WAS UPDATED (1036_+.scfp.tmp) ****
             **** ENERGY FILE WAS UPDATED (1036_+.en.tmp) ****
Total SCF time: 0 days 0 hours 0 min 46 sec 
           ************************************************************
           *              Shut down parallel processing               *
           ************************************************************

-------------------------   --------------------
FINAL SINGLE POINT ENERGY      -287.923430999344
-------------------------   --------------------



           ************************************************************
           *        Program running with 8 parallel MPI-processes     *
           *              working on a common directory               *
           ************************************************************
------------------------------------------------------------------------------
                         ORCA SCF GRADIENT CALCULATION
------------------------------------------------------------------------------

Gradient of the Kohn-Sham DFT energy:
Kohn-Sham wavefunction type      ... RKS
Hartree-Fock exchange scaling    ...    0.250
Number of operators              ...    1
Number of atoms                  ...   16
Basis set dimensions             ...  246
Integral neglect threshold       ... 2.5e-11
Integral primitive cutoff        ... 2.5e-12

Nuclear repulsion gradient       ... done
One Electron Gradient            ... done
Pre-screening matrix             ... done
Starting the two electron gradient:
Two electron gradient done
Exchange-correlation gradient    ... done

------------------
CARTESIAN GRADIENT
------------------

   1   C   :   -0.000288593   -0.000102983    0.000240714
   2   C   :    0.000297511    0.000042351    0.000031696
   3   N   :   -0.000603515   -0.000021402   -0.000049295
   4   C   :    0.000307894   -0.000072125   -0.000073865
   5   C   :    0.000201378   -0.000410549   -0.000049256
   6   O   :   -0.000016001    0.000161587    0.000036559
   7   H   :    0.000012823    0.000063899   -0.000059129
   8   H   :    0.000084358   -0.000080194    0.000034687
   9   H   :    0.000034065    0.000151214   -0.000083428
  10   H   :   -0.000064276   -0.000144635   -0.000098087
  11   H   :    0.000002448    0.000067134    0.000019651
  12   H   :    0.000212077    0.000223274    0.000086270
  13   H   :    0.000099685   -0.000205576    0.000019699
  14   H   :    0.000035667   -0.000029503    0.000002596
  15   H   :   -0.000063495    0.000163817   -0.000055785
  16   H   :   -0.000252028    0.000193690   -0.000003028

Norm of the cartesian gradient     ...    0.001157598
RMS gradient                       ...    0.000167085
MAX gradient                       ...    0.000603515

-------
TIMINGS
-------

Total SCF gradient time            ...       18.960 sec

One electron gradient       ....       0.091 sec  (  0.5%)
Prescreening matrices       ....       0.311 sec  (  1.6%)
Two electron gradient       ....      14.978 sec  ( 79.0%)
XC gradient                 ....       2.942 sec  ( 15.5%)
           ************************************************************
           *              Shut down parallel processing               *
           ************************************************************
------------------------------------------------------------------------------
                         ORCA GEOMETRY RELAXATION STEP
------------------------------------------------------------------------------

Reading the OPT-File                    .... done
Getting information on internals        .... done
Copying old internal coords+grads       .... done
Making the new internal coordinates     .... (new redundants).... done
Validating the new internal coordinates .... (new redundants).... done
Calculating the B-matrix                .... done
Calculating the G,G- and P matrices     .... done
Transforming gradient to internals      .... done
Projecting the internal gradient        .... done
Number of atoms                         ....  16
Number of internal coordinates          ....  75
Current Energy                          ....  -287.923430999 Eh
Current gradient norm                   ....     0.001157598 Eh/bohr
Maximum allowed component of the step   ....  0.300
Current trust radius                    ....  0.300
Evaluating the initial hessian          ....  (Almloef) done
Projecting the Hessian                  .... done
Forming the augmented Hessian           .... done
Diagonalizing the augmented Hessian     .... done
Last element of RFO vector              ....  0.999873623
Lowest eigenvalues of augmented Hessian:
 -0.000004390  0.010890571  0.010952873  0.012230930  0.013062353
Length of the computed step             ....  0.015899750
The final length of the internal step   ....  0.015899750
Converting the step to cartesian space:
 Initial RMS(Int)=    0.0018359449
Transforming coordinates:
 Iter   0:  RMS(Cart)=    0.0028356791 RMS(Int)=    0.0018360339
 Iter   1:  RMS(Cart)=    0.0000092473 RMS(Int)=    0.0000070403
 Iter   2:  RMS(Cart)=    0.0000000596 RMS(Int)=    0.0000000480
done
Storing new coordinates                 .... done

                                .--------------------.
          ----------------------|Geometry convergence|---------------------
          Item                value                 Tolerance   Converged
          -----------------------------------------------------------------
          RMS gradient        0.00008732            0.00003000      NO
          MAX gradient        0.00031219            0.00010000      NO
          RMS step            0.00183594            0.00060000      NO
          MAX step            0.00761513            0.00100000      NO
          ....................................................
          Max(Bonds)      0.0005      Max(Angles)    0.03
          Max(Dihed)        0.44      Max(Improp)    0.00
          -----------------------------------------------------------------

The optimization has not yet converged - more geometry cycles are needed


    ---------------------------------------------------------------------------
                         Redundant Internal Coordinates
                            (Angstroem and degrees)

        Definition                    Value    dE/dq     Step     New-Value
    ----------------------------------------------------------------------------
     1. B(C   1,C   0)                1.5074 -0.000198  0.0003    1.5076   
     2. B(N   2,C   1)                1.5064 -0.000113  0.0002    1.5065   
     3. B(C   3,N   2)                1.4901 -0.000237  0.0003    1.4904   
     4. B(C   4,C   3)                1.5238 -0.000040  0.0001    1.5239   
     5. B(O   5,C   4)                1.1881  0.000086 -0.0000    1.1881   
     6. B(H   6,C   0)                1.0908  0.000047 -0.0001    1.0907   
     7. B(H   7,C   0)                1.0928  0.000107 -0.0002    1.0926   
     8. B(H   8,C   0)                1.0928  0.000140 -0.0002    1.0926   
     9. B(H   9,C   1)                1.0913  0.000159 -0.0002    1.0910   
    10. B(H  10,C   1)                1.0909  0.000056 -0.0001    1.0908   
    11. B(H  11,N   2)                1.0238  0.000312 -0.0004    1.0234   
    12. B(H  12,N   2)                1.0239  0.000222 -0.0003    1.0236   
    13. B(H  13,C   3)                1.0938 -0.000000  0.0000    1.0938   
    14. B(H  14,C   3)                1.0899  0.000164 -0.0002    1.0897   
    15. B(H  15,C   4)                1.1124 -0.000311  0.0005    1.1128   
    16. A(C   1,C   0,H   7)          112.05 -0.000044    0.00    112.06   
    17. A(C   1,C   0,H   8)          112.03  0.000057   -0.01    112.03   
    18. A(H   6,C   0,H   7)          107.34  0.000018   -0.01    107.33   
    19. A(H   7,C   0,H   8)          109.12  0.000001   -0.00    109.12   
    20. A(C   1,C   0,H   6)          108.82  0.000058   -0.01    108.81   
    21. A(H   6,C   0,H   8)          107.25 -0.000094    0.03    107.28   
    22. A(N   2,C   1,H  10)          106.20 -0.000018    0.00    106.21   
    23. A(C   0,C   1,H  10)          112.34 -0.000034    0.01    112.35   
    24. A(C   0,C   1,H   9)          112.37 -0.000049    0.01    112.38   
    25. A(N   2,C   1,H   9)          106.18  0.000019   -0.01    106.17   
    26. A(H   9,C   1,H  10)          108.41  0.000034   -0.01    108.40   
    27. A(C   0,C   1,N   2)          110.97  0.000052   -0.01    110.96   
    28. A(H  11,N   2,H  12)          105.63  0.000014   -0.00    105.63   
    29. A(C   1,N   2,H  12)          108.45 -0.000003   -0.01    108.44   
    30. A(C   3,N   2,H  11)          109.56 -0.000084    0.03    109.58   
    31. A(C   1,N   2,H  11)          108.38  0.000027   -0.01    108.38   
    32. A(C   1,N   2,C   3)          114.63  0.000062   -0.01    114.61   
    33. A(C   3,N   2,H  12)          109.80 -0.000018    0.00    109.80   
    34. A(N   2,C   3,C   4)          112.39  0.000089   -0.01    112.38   
    35. A(H  13,C   3,H  14)          108.82  0.000036   -0.01    108.81   
    36. A(C   4,C   3,H  14)          110.09  0.000028   -0.00    110.08   
    37. A(N   2,C   3,H  14)          108.93 -0.000117    0.03    108.96   
    38. A(C   4,C   3,H  13)          108.90 -0.000043    0.00    108.90   
    39. A(N   2,C   3,H  13)          107.63  0.000007   -0.00    107.62   
    40. A(O   5,C   4,H  15)          122.32  0.000077   -0.02    122.31   
    41. A(C   3,C   4,H  15)          116.54 -0.000016   -0.00    116.54   
    42. A(C   3,C   4,O   5)          121.11 -0.000058    0.00    121.12   
    43. D(H   9,C   1,C   0,H   8)    179.16 -0.000052    0.09    179.25   
    44. D(N   2,C   1,C   0,H   7)     60.91 -0.000013    0.08     60.99   
    45. D(H  10,C   1,C   0,H   7)    179.63 -0.000023    0.09    179.72   
    46. D(H   9,C   1,C   0,H   6)     60.74 -0.000007    0.07     60.81   
    47. D(N   2,C   1,C   0,H   8)    -62.14 -0.000024    0.08    -62.05   
    48. D(H   9,C   1,C   0,H   7)    -57.80 -0.000041    0.09    -57.71   
    49. D(H  10,C   1,C   0,H   8)     56.59 -0.000034    0.09     56.68   
    50. D(N   2,C   1,C   0,H   6)    179.45  0.000020    0.06    179.51   
    51. D(H  10,C   1,C   0,H   6)    -61.83  0.000010    0.07    -61.76   
    52. D(H  11,N   2,C   1,H   9)    178.06 -0.000021    0.12    178.18   
    53. D(C   3,N   2,C   1,H  10)     56.02 -0.000029    0.13     56.15   
    54. D(C   3,N   2,C   1,H   9)    -59.23 -0.000067    0.15    -59.09   
    55. D(C   3,N   2,C   1,C   0)    178.38 -0.000051    0.14    178.53   
    56. D(H  11,N   2,C   1,H  10)    -66.69  0.000018    0.11    -66.58   
    57. D(H  12,N   2,C   1,H  10)    179.10 -0.000011    0.12    179.22   
    58. D(H  12,N   2,C   1,H   9)     63.85 -0.000050    0.13     63.98   
    59. D(H  12,N   2,C   1,C   0)    -58.54 -0.000033    0.13    -58.41   
    60. D(H  11,N   2,C   1,C   0)     55.68 -0.000004    0.12     55.80   
    61. D(H  14,C   3,N   2,H  11)     59.81  0.000034   -0.03     59.79   
    62. D(H  14,C   3,N   2,C   1)    -62.26  0.000020   -0.03    -62.29   
    63. D(H  13,C   3,N   2,H  12)    -66.78 -0.000023   -0.01    -66.79   
    64. D(H  13,C   3,N   2,H  11)    177.64  0.000017   -0.02    177.62   
    65. D(H  13,C   3,N   2,C   1)     55.57  0.000003   -0.03     55.54   
    66. D(C   4,C   3,N   2,H  12)     53.12 -0.000019   -0.02     53.10   
    67. D(C   4,C   3,N   2,H  11)    -62.46  0.000022   -0.03    -62.49   
    68. D(H  14,C   3,N   2,H  12)    175.39 -0.000007   -0.01    175.38   
    69. D(C   4,C   3,N   2,C   1)    175.47  0.000008   -0.04    175.43   
    70. D(H  15,C   4,C   3,N   2)    -28.98 -0.000007   -0.13    -29.11   
    71. D(O   5,C   4,C   3,H  14)     31.14 -0.000046    0.41     31.55   
    72. D(O   5,C   4,C   3,H  13)    -88.09 -0.000081    0.42    -87.67   
    73. D(O   5,C   4,C   3,N   2)    152.75 -0.000116    0.44    153.19   
    74. D(H  15,C   4,C   3,H  14)   -150.60  0.000062   -0.16   -150.75   
    75. D(H  15,C   4,C   3,H  13)     90.18  0.000028   -0.14     90.03   
    ----------------------------------------------------------------------------

         *************************************************************
         *                GEOMETRY OPTIMIZATION CYCLE   2            *
         *************************************************************
---------------------------------
CARTESIAN COORDINATES (ANGSTROEM)
---------------------------------
  C      0.363557    0.276630   -3.044792
  C     -0.530040    0.154309   -1.836703
  N      0.283395    0.002132   -0.577831
  C     -0.520863   -0.091264    0.673439
  C      0.343558   -0.355051    1.900381
  O     -0.002867   -0.006246    2.982005
  H     -0.259544    0.375941   -3.934449
  H      0.989817   -0.607938   -3.183156
  H      1.001284    1.162377   -2.994743
  H     -1.178853   -0.721426   -1.886854
  H     -1.154016    1.037145   -1.691176
  H      0.928374    0.794054   -0.512702
  H      0.874741   -0.827991   -0.672790
  H     -1.226407   -0.918295    0.552644
  H     -1.082396    0.833546    0.803204
  H      1.286632   -0.921255    1.731706

----------------------------
CARTESIAN COORDINATES (A.U.)
----------------------------
  NO LB      ZA    FRAG    MASS        X           Y           Z
   0 C     6.0000    0    12.011          0.687023247380749          0.522755629476594         -5.753823550878152
   1 C     6.0000    0    12.011         -1.001631186196507          0.291602071860334         -3.470865108050305
   2 N     7.0000    0    14.007          0.535538848803461          0.004028391544819         -1.091942239729492
   3 C     6.0000    0    12.011         -0.984287552984915         -0.172463939868471          1.272615746900694
   4 C     6.0000    0    12.011          0.649230548784452         -0.670950021948425          3.591198979808214
   5 O     8.0000    0    15.999         -0.005418747304344         -0.011804146126007          5.635172477559449
   6 H     1.0000    0     1.008         -0.490467011237574          0.710425955166269         -7.435031511040560
   7 H     1.0000    0     1.008          1.870482141414083         -1.148837042961357         -6.015292848918208
   8 H     1.0000    0     1.008          1.892152133548958          2.196573373490555         -5.659244692667418
   9 H     1.0000    0     1.008         -2.227709206853551         -1.363296778457494         -3.565637021672267
  10 H     1.0000    0     1.008         -2.180773615264798          1.959920862399007         -3.195859762831400
  11 H     1.0000    0     1.008          1.754372406835739          1.500544356590259         -0.968866056361362
  12 H     1.0000    0     1.008          1.653020035353534         -1.564675980829070         -1.271389242216902
  13 H     1.0000    0     1.008         -2.317573647640634         -1.735325840252167          1.044345397265220
  14 H     1.0000    0     1.008         -2.045432684294439          1.575173477964661          1.517834988971577
  15 H     1.0000    0     1.008          2.431382855893517         -1.740920240079529          3.272450251091372

--------------------------------
INTERNAL COORDINATES (ANGSTROEM)
--------------------------------
 C      0   0   0   0.000000     0.000     0.000
 C      1   0   0   1.507634     0.000     0.000
 N      2   1   0   1.506517   110.962     0.000
 C      3   2   1   1.490379   114.615   178.528
 C      4   3   2   1.523874   112.378   175.429
 O      5   4   3   1.188102   121.116   153.186
 H      1   2   3   1.090691   108.808   179.508
 H      1   2   3   1.092615   112.056    60.985
 H      1   2   3   1.092587   112.026   297.948
 H      2   1   3   1.091047   112.381   241.302
 H      2   1   3   1.090836   112.351   118.732
 H      3   2   1   1.023416   108.379    55.798
 H      3   2   1   1.023626   108.441   301.595
 H      4   3   2   1.093785   107.623    55.538
 H      4   3   2   1.089694   108.958   297.707
 H      5   4   3   1.112846   116.535   330.886

---------------------------
INTERNAL COORDINATES (A.U.)
---------------------------
 C      0   0   0   0.000000     0.000     0.000
 C      1   0   0   2.849015     0.000     0.000
 N      2   1   0   2.846904   110.962     0.000
 C      3   2   1   2.816408   114.615   178.528
 C      4   3   2   2.879704   112.378   175.429
 O      5   4   3   2.245187   121.116   153.186
 H      1   2   3   2.061107   108.808   179.508
 H      1   2   3   2.064743   112.056    60.985
 H      1   2   3   2.064690   112.026   297.948
 H      2   1   3   2.061781   112.381   241.302
 H      2   1   3   2.061381   112.351   118.732
 H      3   2   1   1.933976   108.379    55.798
 H      3   2   1   1.934373   108.441   301.595
 H      4   3   2   2.066953   107.623    55.538
 H      4   3   2   2.059223   108.958   297.707
 H      5   4   3   2.102975   116.535   330.886



           ************************************************************
           *        Program running with 8 parallel MPI-processes     *
           *              working on a common directory               *
           ************************************************************
           ************************************************************
           *              Shut down parallel processing               *
           ************************************************************


           ************************************************************
           *        Program running with 8 parallel MPI-processes     *
           *              working on a common directory               *
           ************************************************************

Diagonalization of the overlap matrix:
Smallest eigenvalue                        ... 3.633e-04
Time for diagonalization                   ...    0.018 sec
Threshold for overlap eigenvalues          ... 1.000e-08
Number of eigenvalues below threshold      ... 0
Time for construction of square roots      ...    0.011 sec
Total time needed                          ...    0.029 sec

-------------------
DFT GRID GENERATION
-------------------

General Integration Accuracy     IntAcc      ...  4.340
Radial Grid Type                 RadialGrid  ... Gauss-Chebyshev
Angular Grid (max. acc.)         AngularGrid ... Lebedev-194
Angular grid pruning method      GridPruning ... 3 (G Style)
Weight generation scheme         WeightScheme... Becke
Basis function cutoff            BFCut       ...    1.0000e-11
Integration weight cutoff        WCut        ...    1.0000e-14
Grids for H and He will be reduced by one unit

# of grid points (after initial pruning)     ...  35088 (   0.0 sec)
# of grid points (after weights+screening)   ...  32575 (   0.0 sec)
nearest neighbour list constructed           ...    0.0 sec
Grid point re-assignment to atoms done       ...    0.0 sec
Grid point division into batches done        ...    0.1 sec
Reduced shell lists constructed in    0.1 sec

Total number of grid points                  ...    32575
Total number of batches                      ...      517
Average number of points per batch           ...       63
Average number of grid points per atom       ...     2036
Average number of shells per batch           ...    82.64 (77.96%)
Average number of basis functions per batch  ...   190.06 (77.26%)
Average number of large shells per batch     ...    69.02 (83.52%)
Average number of large basis fcns per batch ...   158.98 (83.65%)
Maximum spatial batch extension              ...   2.58,  2.65,  2.14 au
Average spatial batch extension              ...   0.15,  0.14,  0.14 au

Time for grid setup =    0.195 sec

--------------
SCF ITERATIONS
--------------
ITER       Energy         Delta-E        Max-DP      RMS-DP      [F,P]     Damp
               ***  Starting incremental Fock matrix formation  ***
                      *** Initiating the SOSCF procedure ***
                      *** Re-Reading the Fockian *** 
                      *** Removing any level shift *** 
ITER      Energy       Delta-E        Grad      Rot      Max-DP    RMS-DP
  0   -287.92391080 -287.9239107972  0.001080  0.001080  0.001425  0.000024
               *** Restarting incremental Fock matrix formation ***
  1   -287.92394517  -0.0000343760  0.000457  0.001092  0.000576  0.000011
  2   -287.92394936  -0.0000041914  0.000102  0.000237  0.000119  0.000002
  3   -287.92394949  -0.0000001254  0.000027  0.000051  0.000048  0.000001
  4   -287.92394950  -0.0000000079  0.000029  0.000039  0.000034  0.000001
  5   -287.92394951  -0.0000000136  0.000014  0.000023  0.000028  0.000000
  6   -287.92394951   0.0000000009  0.000012  0.000011  0.000019  0.000000
                 **** Energy Check signals convergence ****
              ***Rediagonalizing the Fockian in SOSCF/NRSCF***

               *****************************************************
               *                     SUCCESS                       *
               *           SCF CONVERGED AFTER   7 CYCLES          *
               *****************************************************

Setting up the final grid:

General Integration Accuracy     IntAcc      ...  5.010
Radial Grid Type                 RadialGrid  ... Gauss-Chebyshev
Angular Grid (max. acc.)         AngularGrid ... Lebedev-434
Angular grid pruning method      GridPruning ... 3 (G Style)
Weight generation scheme         WeightScheme... Becke
Basis function cutoff            BFCut       ...    1.0000e-11
Integration weight cutoff        WCut        ...    1.0000e-14
Grids for H and He will be reduced by one unit

# of grid points (after initial pruning)     ... 131144 (   0.0 sec)
# of grid points (after weights+screening)   ... 120186 (   0.1 sec)
nearest neighbour list constructed           ...    0.0 sec
Grid point re-assignment to atoms done       ...    0.1 sec
Grid point division into batches done        ...    0.9 sec
Reduced shell lists constructed in    1.2 sec

Total number of grid points                  ...   120186
Total number of batches                      ...     1885
Average number of points per batch           ...       63
Average number of grid points per atom       ...     7512
Average number of shells per batch           ...    82.81 (78.12%)
Average number of basis functions per batch  ...   191.32 (77.77%)
Average number of large shells per batch     ...    68.36 (82.55%)
Average number of large basis fcns per batch ...   158.02 (82.59%)
Maximum spatial batch extension              ...   1.88,  1.80,  2.08 au
Average spatial batch extension              ...   0.10,  0.09,  0.10 au

Final grid set up in    1.3 sec
Final integration                            ... done (   0.6 sec)
Change in XC energy                          ...     0.000518490
Integrated number of electrons               ...    48.000019704
Previous integrated no of electrons          ...    48.001365529
Total Energy       :         -287.92343102 Eh           -7834.79487 eV
  Last Energy change         ...   -2.5358e-09  Tolerance :   1.0000e-08
  Last MAX-Density change    ...    2.7576e-06  Tolerance :   1.0000e-07
             **** THE GBW FILE WAS UPDATED (1036_+.gbw) ****
             **** DENSITY FILE WAS UPDATED (1036_+.scfp.tmp) ****
             **** ENERGY FILE WAS UPDATED (1036_+.en.tmp) ****
Total SCF time: 0 days 0 hours 0 min 27 sec 
           ************************************************************
           *              Shut down parallel processing               *
           ************************************************************

-------------------------   --------------------
FINAL SINGLE POINT ENERGY      -287.923431022727
-------------------------   --------------------



           ************************************************************
           *        Program running with 8 parallel MPI-processes     *
           *              working on a common directory               *
           ************************************************************
------------------------------------------------------------------------------
                         ORCA SCF GRADIENT CALCULATION
------------------------------------------------------------------------------

Gradient of the Kohn-Sham DFT energy:
Kohn-Sham wavefunction type      ... RKS
Hartree-Fock exchange scaling    ...    0.250
Number of operators              ...    1
Number of atoms                  ...   16
Basis set dimensions             ...  246
Integral neglect threshold       ... 2.5e-11
Integral primitive cutoff        ... 2.5e-12

Nuclear repulsion gradient       ... done
One Electron Gradient            ... done
Pre-screening matrix             ... done
Starting the two electron gradient:
Two electron gradient done
Exchange-correlation gradient    ... done

------------------
CARTESIAN GRADIENT
------------------

   1   C   :   -0.000086540   -0.000044667    0.000091983
   2   C   :    0.000072585   -0.000002348    0.000050161
   3   N   :   -0.000104465   -0.000007521   -0.000034186
   4   C   :   -0.000084122   -0.000223649    0.000021445
   5   C   :    0.000490778    0.000740066   -0.000140548
   6   O   :   -0.000151685   -0.000205557    0.000086163
   7   H   :    0.000026671    0.000025199   -0.000019558
   8   H   :    0.000028077    0.000008091    0.000018172
   9   H   :   -0.000018783    0.000031530   -0.000059021
  10   H   :    0.000011618   -0.000013526   -0.000054208
  11   H   :    0.000005748    0.000006707    0.000017760
  12   H   :    0.000036819   -0.000023555    0.000024444
  13   H   :   -0.000011534   -0.000007526    0.000013753
  14   H   :   -0.000020146   -0.000006665   -0.000054814
  15   H   :    0.000013001   -0.000002336    0.000005245
  16   H   :   -0.000208022   -0.000274243    0.000033209

Norm of the cartesian gradient     ...    0.001055439
RMS gradient                       ...    0.000152339
MAX gradient                       ...    0.000740066

-------
TIMINGS
-------

Total SCF gradient time            ...       19.314 sec

One electron gradient       ....       0.092 sec  (  0.5%)
Prescreening matrices       ....       0.297 sec  (  1.5%)
Two electron gradient       ....      15.193 sec  ( 78.7%)
XC gradient                 ....       3.052 sec  ( 15.8%)
           ************************************************************
           *              Shut down parallel processing               *
           ************************************************************
------------------------------------------------------------------------------
                         ORCA GEOMETRY RELAXATION STEP
------------------------------------------------------------------------------

Reading the OPT-File                    .... done
Getting information on internals        .... done
Copying old internal coords+grads       .... done
Making the new internal coordinates     .... (new redundants).... done
Validating the new internal coordinates .... (new redundants).... done
Calculating the B-matrix                .... done
Calculating the G,G- and P matrices     .... done
Transforming gradient to internals      .... done
Projecting the internal gradient        .... done
Number of atoms                         ....  16
Number of internal coordinates          ....  75
Current Energy                          ....  -287.923431023 Eh
Current gradient norm                   ....     0.001055439 Eh/bohr
Maximum allowed component of the step   ....  0.300
Current trust radius                    ....  0.300
Updating the Hessian (BFGS)             .... done
Forming the augmented Hessian           .... done
Diagonalizing the augmented Hessian     .... done
Last element of RFO vector              ....  0.999853670
Lowest eigenvalues of augmented Hessian:
 -0.000006384  0.007231140  0.011448206  0.012870527  0.013709662
Length of the computed step             ....  0.017109159
The final length of the internal step   ....  0.017109159
Converting the step to cartesian space:
 Initial RMS(Int)=    0.0019755955
Transforming coordinates:
 Iter   0:  RMS(Cart)=    0.0031900417 RMS(Int)=    0.0019755197
 Iter   1:  RMS(Cart)=    0.0000086942 RMS(Int)=    0.0000076396
 Iter   2:  RMS(Cart)=    0.0000000737 RMS(Int)=    0.0000000616
done
Storing new coordinates                 .... done

                                .--------------------.
          ----------------------|Geometry convergence|---------------------
          Item                value                 Tolerance   Converged
          -----------------------------------------------------------------
          Energy change      -0.00000002            0.00000100      YES
          RMS gradient        0.00006043            0.00003000      NO
          MAX gradient        0.00022884            0.00010000      NO
          RMS step            0.00197560            0.00060000      NO
          MAX step            0.00770513            0.00100000      NO
          ....................................................
          Max(Bonds)      0.0005      Max(Angles)    0.04
          Max(Dihed)        0.44      Max(Improp)    0.00
          -----------------------------------------------------------------

The optimization has not yet converged - more geometry cycles are needed


    ---------------------------------------------------------------------------
                         Redundant Internal Coordinates
                            (Angstroem and degrees)

        Definition                    Value    dE/dq     Step     New-Value
    ----------------------------------------------------------------------------
     1. B(C   1,C   0)                1.5076 -0.000055  0.0003    1.5079   
     2. B(N   2,C   1)                1.5065 -0.000057  0.0002    1.5067   
     3. B(C   3,N   2)                1.4904 -0.000066  0.0004    1.4907   
     4. B(C   4,C   3)                1.5239  0.000013  0.0000    1.5239   
     5. B(O   5,C   4)                1.1881  0.000062 -0.0001    1.1881   
     6. B(H   6,C   0)                1.0907  0.000003 -0.0001    1.0906   
     7. B(H   7,C   0)                1.0926  0.000006 -0.0002    1.0925   
     8. B(H   8,C   0)                1.0926  0.000013 -0.0002    1.0924   
     9. B(H   9,C   1)                1.0910  0.000007 -0.0002    1.0908   
    10. B(H  10,C   1)                1.0908  0.000005 -0.0001    1.0908   
    11. B(H  11,N   2)                1.0234  0.000007 -0.0004    1.0230   
    12. B(H  12,N   2)                1.0236 -0.000002 -0.0003    1.0234   
    13. B(H  13,C   3)                1.0938  0.000025 -0.0000    1.0938   
    14. B(H  14,C   3)                1.0897 -0.000009 -0.0002    1.0895   
    15. B(H  15,C   4)                1.1128 -0.000041  0.0005    1.1134   
    16. A(C   1,C   0,H   7)          112.06 -0.000005    0.00    112.06   
    17. A(C   1,C   0,H   8)          112.03  0.000037   -0.01    112.02   
    18. A(H   6,C   0,H   7)          107.33 -0.000002   -0.01    107.32   
    19. A(H   7,C   0,H   8)          109.12 -0.000013   -0.00    109.12   
    20. A(C   1,C   0,H   6)          108.81  0.000038   -0.01    108.80   
    21. A(H   6,C   0,H   8)          107.28 -0.000059    0.04    107.31   
    22. A(N   2,C   1,H  10)          106.21 -0.000008    0.00    106.21   
    23. A(C   0,C   1,H  10)          112.35 -0.000015    0.01    112.37   
    24. A(C   0,C   1,H   9)          112.38 -0.000023    0.01    112.39   
    25. A(N   2,C   1,H   9)          106.17  0.000008   -0.01    106.15   
    26. A(H   9,C   1,H  10)          108.40  0.000014   -0.01    108.38   
    27. A(C   0,C   1,N   2)          110.96  0.000026   -0.01    110.95   
    28. A(H  11,N   2,H  12)          105.63 -0.000004    0.00    105.63   
    29. A(C   1,N   2,H  12)          108.44 -0.000001   -0.01    108.43   
    30. A(C   3,N   2,H  11)          109.58 -0.000038    0.03    109.61   
    31. A(C   1,N   2,H  11)          108.38  0.000018   -0.01    108.37   
    32. A(C   1,N   2,C   3)          114.61  0.000016   -0.01    114.60   
    33. A(C   3,N   2,H  12)          109.80  0.000008   -0.00    109.80   
    34. A(N   2,C   3,C   4)          112.38 -0.000035   -0.01    112.37   
    35. A(H  13,C   3,H  14)          108.81 -0.000001   -0.01    108.80   
    36. A(C   4,C   3,H  14)          110.08 -0.000011    0.00    110.08   
    37. A(N   2,C   3,H  14)          108.96 -0.000004    0.03    108.99   
    38. A(C   4,C   3,H  13)          108.90  0.000060   -0.01    108.89   
    39. A(N   2,C   3,H  13)          107.62 -0.000009   -0.01    107.62   
    40. A(O   5,C   4,H  15)          122.31  0.000026   -0.01    122.30   
    41. A(C   3,C   4,H  15)          116.54 -0.000033    0.01    116.55   
    42. A(C   3,C   4,O   5)          121.12 -0.000007    0.01    121.13   
    43. D(H   9,C   1,C   0,H   8)    179.25 -0.000033    0.13    179.38   
    44. D(N   2,C   1,C   0,H   7)     60.99 -0.000014    0.11     61.09   
    45. D(H  10,C   1,C   0,H   7)    179.72 -0.000017    0.11    179.83   
    46. D(H   9,C   1,C   0,H   6)     60.81 -0.000007    0.10     60.91   
    47. D(N   2,C   1,C   0,H   8)    -62.05 -0.000021    0.11    -61.94   
    48. D(H   9,C   1,C   0,H   7)    -57.71 -0.000027    0.12    -57.59   
    49. D(H  10,C   1,C   0,H   8)     56.68 -0.000023    0.12     56.80   
    50. D(N   2,C   1,C   0,H   6)    179.51  0.000005    0.08    179.59   
    51. D(H  10,C   1,C   0,H   6)    -61.76  0.000003    0.09    -61.67   
    52. D(H  11,N   2,C   1,H   9)    178.18 -0.000022    0.17    178.35   
    53. D(C   3,N   2,C   1,H  10)     56.15 -0.000030    0.18     56.34   
    54. D(C   3,N   2,C   1,H   9)    -59.09 -0.000046    0.20    -58.89   
    55. D(C   3,N   2,C   1,C   0)    178.53 -0.000038    0.20    178.72   
    56. D(H  11,N   2,C   1,H  10)    -66.58 -0.000006    0.15    -66.42   
    57. D(H  12,N   2,C   1,H  10)    179.22 -0.000010    0.16    179.38   
    58. D(H  12,N   2,C   1,H   9)     63.98 -0.000025    0.18     64.16   
    59. D(H  12,N   2,C   1,C   0)    -58.41 -0.000018    0.18    -58.23   
    60. D(H  11,N   2,C   1,C   0)     55.80 -0.000014    0.17     55.97   
    61. D(H  14,C   3,N   2,H  11)     59.79  0.000005   -0.04     59.75   
    62. D(H  14,C   3,N   2,C   1)    -62.29 -0.000001   -0.04    -62.34   
    63. D(H  13,C   3,N   2,H  12)    -66.79 -0.000026   -0.01    -66.81   
    64. D(H  13,C   3,N   2,H  11)    177.62 -0.000003   -0.03    177.58   
    65. D(H  13,C   3,N   2,C   1)     55.54 -0.000010   -0.04     55.50   
    66. D(C   4,C   3,N   2,H  12)     53.10  0.000022   -0.03     53.06   
    67. D(C   4,C   3,N   2,H  11)    -62.49  0.000045   -0.05    -62.55   
    68. D(H  14,C   3,N   2,H  12)    175.38 -0.000017   -0.02    175.36   
    69. D(C   4,C   3,N   2,C   1)    175.43  0.000038   -0.06    175.37   
    70. D(H  15,C   4,C   3,N   2)    -29.11 -0.000229    0.44    -28.67   
    71. D(O   5,C   4,C   3,H  14)     31.55  0.000191   -0.06     31.49   
    72. D(O   5,C   4,C   3,H  13)    -87.67  0.000162   -0.04    -87.71   
    73. D(O   5,C   4,C   3,N   2)    153.19  0.000154   -0.02    153.17   
    74. D(H  15,C   4,C   3,H  14)   -150.75 -0.000192    0.40   -150.35   
    75. D(H  15,C   4,C   3,H  13)     90.03 -0.000221    0.42     90.45   
    ----------------------------------------------------------------------------

         *************************************************************
         *                GEOMETRY OPTIMIZATION CYCLE   3            *
         *************************************************************
---------------------------------
CARTESIAN COORDINATES (ANGSTROEM)
---------------------------------
  C      0.363895    0.275311   -3.045043
  C     -0.530120    0.155579   -1.836652
  N      0.283320    0.003553   -0.577528
  C     -0.521588   -0.091948    0.673586
  C      0.342695   -0.356949    1.900417
  O     -0.003804   -0.009604    2.982432
  H     -0.259139    0.376063   -3.934501
  H      0.987460   -0.610954   -3.183489
  H      1.004143    1.158970   -2.994819
  H     -1.180011   -0.719140   -1.885566
  H     -1.152983    1.039241   -1.691987
  H      0.927193    0.795839   -0.511968
  H      0.875381   -0.825665   -0.673004
  H     -1.226347   -0.919425    0.551437
  H     -1.084026    0.831857    0.804710
  H      1.290301   -0.916061    1.730155

----------------------------
CARTESIAN COORDINATES (A.U.)
----------------------------
  NO LB      ZA    FRAG    MASS        X           Y           Z
   0 C     6.0000    0    12.011          0.687661753742133          0.520261773933677         -5.754296999077779
   1 C     6.0000    0    12.011         -1.001781714591218          0.294001626740150         -3.470768503089104
   2 N     7.0000    0    14.007          0.535396734178821          0.006714469889524         -1.091369691521913
   3 C     6.0000    0    12.011         -0.985657698912537         -0.173756086837169          1.272893717708440
   4 C     6.0000    0    12.011          0.647600406169418         -0.674535574486156          3.591267980779790
   5 O     8.0000    0    15.999         -0.007188276595196         -0.018149615633225          5.635979622051247
   6 H     1.0000    0     1.008         -0.489701157130227          0.710655488263678         -7.435129255802245
   7 H     1.0000    0     1.008          1.866028714534355         -1.154536066758495         -6.015922345348139
   8 H     1.0000    0     1.008          1.897555719082630          2.190135730117967         -5.659387373887081
   9 H     1.0000    0     1.008         -2.229898140468305         -1.358977915429312         -3.563202881324007
  10 H     1.0000    0     1.008         -2.178822821945646          1.963881033678421         -3.197391147586877
  11 H     1.0000    0     1.008          1.752141755924616          1.503917618493043         -0.967480181127709
  12 H     1.0000    0     1.008          1.654231184658922         -1.560280146238413         -1.271793457382799
  13 H     1.0000    0     1.008         -2.317459951897575         -1.737461367738505          1.042065076683691
  14 H     1.0000    0     1.008         -2.048513108396525          1.571982758465871          1.520681523272007
  15 H     1.0000    0     1.008          2.438315167884064         -1.731103598491078          3.269519722882937

--------------------------------
INTERNAL COORDINATES (ANGSTROEM)
--------------------------------
 C      0   0   0   0.000000     0.000     0.000
 C      1   0   0   1.507915     0.000     0.000
 N      2   1   0   1.506714   110.953     0.000
 C      3   2   1   1.490732   114.602   178.725
 C      4   3   2   1.523917   112.369   175.369
 O      5   4   3   1.188051   121.128   153.167
 H      1   2   3   1.090623   108.796   179.592
 H      1   2   3   1.092459   112.058    61.091
 H      1   2   3   1.092380   112.017   298.062
 H      2   1   3   1.090818   112.394   241.315
 H      2   1   3   1.090755   112.366   118.741
 H      3   2   1   1.023029   108.373    55.968
 H      3   2   1   1.023355   108.429   301.771
 H      4   3   2   1.093766   107.617    55.499
 H      4   3   2   1.089471   108.992   297.665
 H      5   4   3   1.113351   116.547   331.328

---------------------------
INTERNAL COORDINATES (A.U.)
---------------------------
 C      0   0   0   0.000000     0.000     0.000
 C      1   0   0   2.849547     0.000     0.000
 N      2   1   0   2.847278   110.953     0.000
 C      3   2   1   2.817076   114.602   178.725
 C      4   3   2   2.879787   112.369   175.369
 O      5   4   3   2.245092   121.128   153.167
 H      1   2   3   2.060978   108.796   179.592
 H      1   2   3   2.064448   112.058    61.091
 H      1   2   3   2.064299   112.017   298.062
 H      2   1   3   2.061348   112.394   241.315
 H      2   1   3   2.061227   112.366   118.741
 H      3   2   1   1.933245   108.373    55.968
 H      3   2   1   1.933860   108.429   301.771
 H      4   3   2   2.066919   107.617    55.499
 H      4   3   2   2.058802   108.992   297.665
 H      5   4   3   2.103929   116.547   331.328



           ************************************************************
           *        Program running with 8 parallel MPI-processes     *
           *              working on a common directory               *
           ************************************************************
           ************************************************************
           *              Shut down parallel processing               *
           ************************************************************


           ************************************************************
           *        Program running with 8 parallel MPI-processes     *
           *              working on a common directory               *
           ************************************************************

Diagonalization of the overlap matrix:
Smallest eigenvalue                        ... 3.636e-04
Time for diagonalization                   ...    0.018 sec
Threshold for overlap eigenvalues          ... 1.000e-08
Number of eigenvalues below threshold      ... 0
Time for construction of square roots      ...    0.011 sec
Total time needed                          ...    0.029 sec

-------------------
DFT GRID GENERATION
-------------------

General Integration Accuracy     IntAcc      ...  4.340
Radial Grid Type                 RadialGrid  ... Gauss-Chebyshev
Angular Grid (max. acc.)         AngularGrid ... Lebedev-194
Angular grid pruning method      GridPruning ... 3 (G Style)
Weight generation scheme         WeightScheme... Becke
Basis function cutoff            BFCut       ...    1.0000e-11
Integration weight cutoff        WCut        ...    1.0000e-14
Grids for H and He will be reduced by one unit

# of grid points (after initial pruning)     ...  35088 (   0.0 sec)
# of grid points (after weights+screening)   ...  32577 (   0.0 sec)
nearest neighbour list constructed           ...    0.0 sec
Grid point re-assignment to atoms done       ...    0.0 sec
Grid point division into batches done        ...    0.1 sec
Reduced shell lists constructed in    0.1 sec

Total number of grid points                  ...    32577
Total number of batches                      ...      517
Average number of points per batch           ...       63
Average number of grid points per atom       ...     2036
Average number of shells per batch           ...    82.62 (77.94%)
Average number of basis functions per batch  ...   190.05 (77.25%)
Average number of large shells per batch     ...    69.00 (83.51%)
Average number of large basis fcns per batch ...   158.97 (83.65%)
Maximum spatial batch extension              ...   2.58,  2.65,  2.14 au
Average spatial batch extension              ...   0.15,  0.13,  0.14 au

Time for grid setup =    0.195 sec

--------------
SCF ITERATIONS
--------------
ITER       Energy         Delta-E        Max-DP      RMS-DP      [F,P]     Damp
               ***  Starting incremental Fock matrix formation  ***
                      *** Initiating the SOSCF procedure ***
                      *** Re-Reading the Fockian *** 
                      *** Removing any level shift *** 
ITER      Energy       Delta-E        Grad      Rot      Max-DP    RMS-DP
  0   -287.92394286 -287.9239428569  0.000313  0.000313  0.000557  0.000013
               *** Restarting incremental Fock matrix formation ***
  1   -287.92395140  -0.0000085402  0.000210  0.000869  0.000409  0.000009
  2   -287.92395279  -0.0000013971  0.000067  0.000404  0.000169  0.000003
  3   -287.92395284  -0.0000000452  0.000085  0.000108  0.000142  0.000002
  4   -287.92395289  -0.0000000457  0.000037  0.000083  0.000119  0.000001
  5   -287.92395289  -0.0000000082  0.000013  0.000011  0.000026  0.000000
  6   -287.92395290  -0.0000000047  0.000006  0.000026  0.000014  0.000000
                 **** Energy Check signals convergence ****
              ***Rediagonalizing the Fockian in SOSCF/NRSCF***

               *****************************************************
               *                     SUCCESS                       *
               *           SCF CONVERGED AFTER   7 CYCLES          *
               *****************************************************

Setting up the final grid:

General Integration Accuracy     IntAcc      ...  5.010
Radial Grid Type                 RadialGrid  ... Gauss-Chebyshev
Angular Grid (max. acc.)         AngularGrid ... Lebedev-434
Angular grid pruning method      GridPruning ... 3 (G Style)
Weight generation scheme         WeightScheme... Becke
Basis function cutoff            BFCut       ...    1.0000e-11
Integration weight cutoff        WCut        ...    1.0000e-14
Grids for H and He will be reduced by one unit

# of grid points (after initial pruning)     ... 131144 (   0.0 sec)
# of grid points (after weights+screening)   ... 120185 (   0.1 sec)
nearest neighbour list constructed           ...    0.0 sec
Grid point re-assignment to atoms done       ...    0.0 sec
Grid point division into batches done        ...    0.9 sec
Reduced shell lists constructed in    1.1 sec

Total number of grid points                  ...   120185
Total number of batches                      ...     1886
Average number of points per batch           ...       63
Average number of grid points per atom       ...     7512
Average number of shells per batch           ...    82.81 (78.12%)
Average number of basis functions per batch  ...   191.29 (77.76%)
Average number of large shells per batch     ...    68.37 (82.56%)
Average number of large basis fcns per batch ...   158.02 (82.61%)
Maximum spatial batch extension              ...   2.01,  1.80,  2.09 au
Average spatial batch extension              ...   0.10,  0.09,  0.10 au

Final grid set up in    1.3 sec
Final integration                            ... done (   0.6 sec)
Change in XC energy                          ...     0.000518647
Integrated number of electrons               ...    48.000019944
Previous integrated no of electrons          ...    48.001366268
Total Energy       :         -287.92343425 Eh           -7834.79496 eV
  Last Energy change         ...   -7.1026e-10  Tolerance :   1.0000e-08
  Last MAX-Density change    ...    6.5251e-06  Tolerance :   1.0000e-07
             **** THE GBW FILE WAS UPDATED (1036_+.gbw) ****
             **** DENSITY FILE WAS UPDATED (1036_+.scfp.tmp) ****
             **** ENERGY FILE WAS UPDATED (1036_+.en.tmp) ****
Total SCF time: 0 days 0 hours 0 min 27 sec 
           ************************************************************
           *              Shut down parallel processing               *
           ************************************************************

-------------------------   --------------------
FINAL SINGLE POINT ENERGY      -287.923434251313
-------------------------   --------------------



           ************************************************************
           *        Program running with 8 parallel MPI-processes     *
           *              working on a common directory               *
           ************************************************************
------------------------------------------------------------------------------
                         ORCA SCF GRADIENT CALCULATION
------------------------------------------------------------------------------

Gradient of the Kohn-Sham DFT energy:
Kohn-Sham wavefunction type      ... RKS
Hartree-Fock exchange scaling    ...    0.250
Number of operators              ...    1
Number of atoms                  ...   16
Basis set dimensions             ...  246
Integral neglect threshold       ... 2.5e-11
Integral primitive cutoff        ... 2.5e-12

Nuclear repulsion gradient       ... done
One Electron Gradient            ... done
Pre-screening matrix             ... done
Starting the two electron gradient:
Two electron gradient done
Exchange-correlation gradient    ... done

------------------
CARTESIAN GRADIENT
------------------

   1   C   :    0.000122366    0.000020186   -0.000078465
   2   C   :   -0.000144698   -0.000041950    0.000062931
   3   N   :    0.000372376    0.000054323   -0.000090313
   4   C   :   -0.000166849    0.000175458    0.000081001
   5   C   :   -0.000200471    0.000091502    0.000033982
   6   O   :    0.000019122    0.000049397    0.000024091
   7   H   :    0.000037195   -0.000021827    0.000020708
   8   H   :   -0.000028978    0.000093814   -0.000001983
   9   H   :   -0.000068709   -0.000090336   -0.000023023
  10   H   :    0.000080380    0.000112529   -0.000007173
  11   H   :    0.000006303   -0.000054767    0.000015788
  12   H   :   -0.000138766   -0.000263707   -0.000048303
  13   H   :   -0.000119546    0.000179958    0.000012180
  14   H   :    0.000005937   -0.000011796    0.000003890
  15   H   :    0.000040550   -0.000147503    0.000020362
  16   H   :    0.000183789   -0.000145280   -0.000025673

Norm of the cartesian gradient     ...    0.000762606
RMS gradient                       ...    0.000110073
MAX gradient                       ...    0.000372376

-------
TIMINGS
-------

Total SCF gradient time            ...       19.113 sec

One electron gradient       ....       0.092 sec  (  0.5%)
Prescreening matrices       ....       0.330 sec  (  1.7%)
Two electron gradient       ....      15.179 sec  ( 79.4%)
XC gradient                 ....       3.162 sec  ( 16.5%)
           ************************************************************
           *              Shut down parallel processing               *
           ************************************************************
------------------------------------------------------------------------------
                         ORCA GEOMETRY RELAXATION STEP
------------------------------------------------------------------------------

Reading the OPT-File                    .... done
Getting information on internals        .... done
Copying old internal coords+grads       .... done
Making the new internal coordinates     .... (new redundants).... done
Validating the new internal coordinates .... (new redundants).... done
Calculating the B-matrix                .... done
Calculating the G,G- and P matrices     .... done
Transforming gradient to internals      .... done
Projecting the internal gradient        .... done
Number of atoms                         ....  16
Number of internal coordinates          ....  75
Current Energy                          ....  -287.923434251 Eh
Current gradient norm                   ....     0.000762606 Eh/bohr
Maximum allowed component of the step   ....  0.300
Current trust radius                    ....  0.300
Updating the Hessian (BFGS)             .... done
Forming the augmented Hessian           .... done
Diagonalizing the augmented Hessian     .... done
Last element of RFO vector              ....  0.999941498
Lowest eigenvalues of augmented Hessian:
 -0.000001488  0.005627624  0.011488402  0.012871235  0.013712957
Length of the computed step             ....  0.010817301
The final length of the internal step   ....  0.010817301
Converting the step to cartesian space:
 Initial RMS(Int)=    0.0012490744
Transforming coordinates:
 Iter   0:  RMS(Cart)=    0.0022321265 RMS(Int)=    0.0012490838
 Iter   1:  RMS(Cart)=    0.0000034446 RMS(Int)=    0.0000026187
 Iter   2:  RMS(Cart)=    0.0000000133 RMS(Int)=    0.0000000100
done
Storing new coordinates                 .... done

                                .--------------------.
          ----------------------|Geometry convergence|---------------------
          Item                value                 Tolerance   Converged
          -----------------------------------------------------------------
          Energy change      -0.00000323            0.00000100      NO
          RMS gradient        0.00006460            0.00003000      NO
          MAX gradient        0.00029443            0.00010000      NO
          RMS step            0.00124907            0.00060000      NO
          MAX step            0.00361195            0.00100000      NO
          ....................................................
          Max(Bonds)      0.0003      Max(Angles)    0.01
          Max(Dihed)        0.21      Max(Improp)    0.00
          -----------------------------------------------------------------

The optimization has not yet converged - more geometry cycles are needed


    ---------------------------------------------------------------------------
                         Redundant Internal Coordinates
                            (Angstroem and degrees)

        Definition                    Value    dE/dq     Step     New-Value
    ----------------------------------------------------------------------------
     1. B(C   1,C   0)                1.5079  0.000102 -0.0001    1.5078   
     2. B(N   2,C   1)                1.5067  0.000010  0.0000    1.5067   
     3. B(C   3,N   2)                1.4907  0.000177 -0.0002    1.4906   
     4. B(C   4,C   3)                1.5239  0.000029 -0.0000    1.5239   
     5. B(O   5,C   4)                1.1881  0.000030 -0.0000    1.1880   
     6. B(H   6,C   0)                1.0906 -0.000040  0.0000    1.0907   
     7. B(H   7,C   0)                1.0925 -0.000094  0.0001    1.0926   
     8. B(H   8,C   0)                1.0924 -0.000113  0.0001    1.0925   
     9. B(H   9,C   1)                1.0908 -0.000138  0.0001    1.0910   
    10. B(H  10,C   1)                1.0908 -0.000046  0.0000    1.0908   
    11. B(H  11,N   2)                1.0230 -0.000294  0.0003    1.0233   
    12. B(H  12,N   2)                1.0234 -0.000216  0.0002    1.0236   
    13. B(H  13,C   3)                1.0938  0.000006 -0.0000    1.0938   
    14. B(H  14,C   3)                1.0895 -0.000145  0.0002    1.0896   
    15. B(H  15,C   4)                1.1134  0.000234 -0.0003    1.1131   
    16. A(C   1,C   0,H   7)          112.06  0.000037   -0.01    112.05   
    17. A(C   1,C   0,H   8)          112.02  0.000006   -0.00    112.01   
    18. A(H   6,C   0,H   7)          107.32 -0.000024    0.00    107.32   
    19. A(H   7,C   0,H   8)          109.12 -0.000025    0.00    109.12   
    20. A(C   1,C   0,H   6)          108.80  0.000016   -0.01    108.79   
    21. A(H   6,C   0,H   8)          107.31 -0.000013    0.01    107.32   
    22. A(N   2,C   1,H  10)          106.21 -0.000000   -0.00    106.21   
    23. A(C   0,C   1,H  10)          112.37  0.000005    0.00    112.37   
    24. A(C   0,C   1,H   9)          112.39  0.000002    0.00    112.40   
    25. A(N   2,C   1,H   9)          106.15 -0.000006   -0.00    106.15   
    26. A(H   9,C   1,H  10)          108.38 -0.000007    0.00    108.38   
    27. A(C   0,C   1,N   2)          110.95  0.000005   -0.00    110.95   
    28. A(H  11,N   2,H  12)          105.63 -0.000020    0.01    105.64   
    29. A(C   1,N   2,H  12)          108.43 -0.000002   -0.00    108.43   
    30. A(C   3,N   2,H  11)          109.61  0.000016    0.00    109.62   
    31. A(C   1,N   2,H  11)          108.37  0.000000   -0.00    108.37   
    32. A(C   1,N   2,C   3)          114.60 -0.000016   -0.00    114.60   
    33. A(C   3,N   2,H  12)          109.80  0.000021   -0.01    109.80   
    34. A(N   2,C   3,C   4)          112.37 -0.000004   -0.00    112.37   
    35. A(H  13,C   3,H  14)          108.80 -0.000011    0.00    108.80   
    36. A(C   4,C   3,H  14)          110.08 -0.000017    0.00    110.09   
    37. A(N   2,C   3,H  14)          108.99  0.000028    0.00    108.99   
    38. A(C   4,C   3,H  13)          108.89 -0.000007    0.00    108.89   
[...]
     32       0.059460  -0.042143   0.057952   0.098563  -0.055764   0.427439
     33      -0.091527   0.038234   0.132478   0.033396   0.082455  -0.081433
     34      -0.081270   0.009575  -0.018946  -0.001430  -0.031167   0.023114
     35       0.039933  -0.119922  -0.067587   0.059514  -0.013122   0.045101
     36       0.246329   0.125684  -0.031076   0.391242  -0.824325  -0.218970
     37      -0.162838  -0.035379   0.015658  -0.113309   0.242920   0.069491
     38      -0.067381   0.051972  -0.018066   0.013559  -0.256295  -0.158226
     39       0.183405   0.372988   0.433996  -0.484769   0.013254  -0.161844
     40      -0.137824  -0.180312  -0.208851   0.269857   0.007986   0.068939
     41      -0.186899   0.225770   0.078586   0.430865   0.271782  -0.283266
     42       0.110931   0.608168  -0.373980   0.119164   0.106813   0.014700
     43      -0.096144  -0.323406   0.221063  -0.040901  -0.055803  -0.000488
     44      -0.110707  -0.248626   0.694913   0.395217   0.046988   0.075207
     45      -0.111877  -0.092375   0.006967   0.025125  -0.015409   0.011961
     46      -0.043879   0.066033  -0.005780  -0.022432  -0.003219   0.022288
     47      -0.584668   0.079138  -0.029675  -0.060176  -0.094815   0.236663
                 30         31         32         33         34         35    
      0       0.053091   0.034034   0.045581   0.016880  -0.062344  -0.041698
      1      -0.031657  -0.016987  -0.022196  -0.010161   0.025283   0.015805
      2       0.011491   0.019108   0.142478  -0.039571  -0.011065   0.014844
      3      -0.144071  -0.070191  -0.076363  -0.055513   0.031214   0.024608
      4       0.048981   0.025042   0.027170   0.016057  -0.008461  -0.009392
      5      -0.112808  -0.076766  -0.041662   0.023529  -0.264809  -0.068492
      6       0.068648   0.022488   0.003038   0.011761  -0.030737  -0.012355
      7      -0.022238  -0.003354   0.003531  -0.001601   0.009399   0.002151
      8       0.221637   0.051990  -0.122143   0.038028  -0.060182  -0.015614
      9       0.007817   0.006316   0.008457   0.003444  -0.001647   0.000286
     10      -0.002970  -0.000524   0.000291  -0.000435   0.000393   0.000357
     11      -0.070154   0.018939   0.022453  -0.009088   0.059585   0.009829
     12      -0.041247  -0.002036   0.010287  -0.002584   0.017168   0.005186
     13       0.022707   0.002078  -0.003811   0.002342  -0.010565  -0.002324
     14      -0.072889   0.006016  -0.012356  -0.012615   0.062438   0.010938
     15       0.000515   0.000062  -0.000261   0.000149  -0.000246  -0.000023
     16       0.000511   0.000017  -0.000122   0.000224  -0.000139   0.000020
     17      -0.046881  -0.001451  -0.033026  -0.016622   0.059392   0.004759
     18      -0.060418   0.020878   0.067478  -0.087911   0.091778  -0.045156
     19       0.040725  -0.001892  -0.042412   0.049641  -0.046051   0.040606
     20       0.030573   0.019943   0.084068   0.027596  -0.103541   0.047048
     21      -0.061720   0.011546   0.070634  -0.107154   0.054335  -0.126756
     22       0.023238  -0.007751  -0.049779   0.051034  -0.011063   0.094763
     23      -0.098219   0.020130   0.074913  -0.211250   0.282723  -0.147427
     24      -0.134941  -0.051196  -0.066935   0.110868  -0.033967   0.444370
     25       0.058614   0.023743   0.022723  -0.064519   0.034700  -0.203561
     26      -0.032399  -0.000875   0.236643   0.071858  -0.080962   0.606198
     27       0.198404   0.104246  -0.132097   0.235652  -0.057014   0.129857
     28      -0.067599  -0.037472   0.059228  -0.094253   0.023367  -0.055380
     29       0.081557   0.056927  -0.400735   0.200712   0.281233   0.346770
     30       0.225461  -0.226039  -0.048978  -0.202369   0.175972  -0.043015
     31      -0.039361   0.074382   0.015391   0.072295  -0.066272   0.010280
     32       0.619929  -0.502472  -0.171886  -0.393431   0.309853  -0.058372
     33      -0.049741  -0.141886  -0.058810   0.302034   0.254322  -0.091340
     34       0.014085   0.037212   0.002994  -0.087238  -0.084663   0.034520
     35      -0.138327  -0.153525   0.128909   0.652574   0.570972  -0.368328
     36       0.135228   0.005882  -0.007825   0.057790   0.085938   0.061265
     37      -0.035684   0.004527   0.000671  -0.013591  -0.029805  -0.016443
     38       0.038267   0.038891  -0.049297  -0.083141   0.356092   0.073724
     39       0.127807  -0.093176   0.177155   0.078315   0.011860   0.071239
     40      -0.035455   0.033426  -0.042142  -0.032193  -0.010613  -0.029457
     41       0.454589  -0.254932   0.738344   0.092884  -0.022976   0.101318
     42       0.102720   0.441488   0.083035  -0.116538   0.089274  -0.085847
     43      -0.054268  -0.189745  -0.039411   0.051678  -0.039678   0.037994
     44      -0.141516   0.543546   0.068925  -0.166189   0.178432  -0.084493
     45       0.037528  -0.005362   0.021728   0.013607  -0.055482  -0.004140
     46      -0.044995  -0.004588   0.008291  -0.007127   0.022445   0.003505
     47      -0.238479  -0.077378   0.189986  -0.006460  -0.044993   0.016789
                 36         37         38         39         40         41    
      0       0.010482  -0.058974  -0.022110  -0.025298  -0.060334   0.060733
      1      -0.002464   0.021931   0.008231   0.008559   0.019971  -0.025824
      2      -0.199701  -0.059516  -0.002728   0.045615   0.072973   0.041202
      3      -0.007575  -0.029978  -0.005662   0.012153  -0.008439   0.007493
      4       0.004344   0.010226  -0.000879  -0.007552   0.003775  -0.003932
      5      -0.036921   0.069148   0.040586  -0.041587   0.004173  -0.005571
      6      -0.022205   0.026150   0.018436  -0.007258  -0.001916  -0.005627
      7       0.010538  -0.005447  -0.001121   0.000970   0.000984  -0.000395
      8       0.043192   0.038023  -0.004149   0.004943   0.023166  -0.021732
      9       0.005448   0.004466  -0.000237  -0.000830   0.002765  -0.003294
     10       0.000213  -0.000144   0.000325   0.000120   0.000328  -0.000798
     11       0.086706  -0.036189  -0.018375  -0.000122   0.000913  -0.001454
     12       0.018999  -0.006114  -0.000577   0.001553   0.004059  -0.003136
     13      -0.009420   0.004709   0.000126  -0.001022  -0.001366   0.000260
     14       0.078214  -0.051135  -0.021715   0.004437  -0.004798   0.010503
     15       0.000046  -0.000117  -0.000175   0.000063  -0.000084   0.000139
     16       0.000236  -0.000247  -0.000294   0.000099  -0.000162   0.000343
     17       0.060123  -0.058802  -0.020671   0.006082  -0.012967   0.024856
     18       0.000927   0.094727   0.041613  -0.260441   0.575950  -0.345924
     19      -0.015616  -0.054480  -0.024375   0.166455  -0.301064   0.190729
     20      -0.191070  -0.156158  -0.038200   0.378313  -0.495001  -0.613855
     21       0.029990   0.223461  -0.091123  -0.099133  -0.257756  -0.187206
     22      -0.031723  -0.129633   0.046131   0.072233   0.177359   0.078844
     23      -0.146669   0.829746  -0.237754   0.290100  -0.092894   0.189625
     24       0.145464   0.172089   0.035434   0.426290   0.278107  -0.168754
     25      -0.085027  -0.086032  -0.015184  -0.196038  -0.105187   0.073692
     26       0.326289   0.307620  -0.002475  -0.461077  -0.247786   0.060682
     27       0.117502   0.046260   0.152588   0.257615   0.085962   0.067505
     28      -0.058569  -0.020102  -0.064920  -0.114217  -0.038887  -0.035994
     29      -0.767388   0.008477  -0.261145  -0.310184  -0.081959  -0.033606
     30      -0.059614  -0.009056  -0.004703  -0.154414  -0.037846  -0.350140
     31       0.042203   0.002530   0.004593   0.066600   0.015972   0.138087
     32       0.127794  -0.000375   0.009093   0.015261   0.029419   0.091009
     33      -0.145885   0.048309   0.098332   0.045420  -0.026894   0.347784
     34       0.036835  -0.014412  -0.027343  -0.004438   0.010638  -0.080281
     35       0.093708   0.090563  -0.008918  -0.075719   0.025616  -0.216307
     36      -0.046155  -0.028764  -0.248455   0.054608   0.081202   0.032807
     37       0.024611   0.004873   0.047396  -0.014221  -0.017003  -0.014669
     38      -0.196712   0.077159   0.859679  -0.033309  -0.184995   0.021331
     39      -0.018296   0.033323   0.032741   0.040034   0.039046   0.014225
     40       0.014789  -0.014205  -0.017027  -0.020131  -0.018485  -0.009335
     41       0.102852  -0.001942  -0.022714  -0.008934  -0.011292  -0.002630
     42       0.017903   0.089005   0.053288  -0.057955   0.020046  -0.052016
     43      -0.005702  -0.038230  -0.024482   0.026780  -0.007026   0.020925
     44       0.089993   0.037347   0.023005  -0.042826   0.022018  -0.039090
     45      -0.059948   0.048684   0.017514  -0.004145   0.008304  -0.018647
     46       0.015317  -0.008281   0.002467   0.000683   0.002005  -0.000989
     47      -0.138883   0.138266   0.091785  -0.016254   0.047816  -0.082084
                 42         43         44         45         46         47    
      0       0.027541  -0.021195  -0.057722   0.036382   0.040436  -0.044574
      1      -0.012559   0.014647   0.010780  -0.019380   0.007973   0.045661
      2      -0.034366  -0.009957   0.047042   0.060574   0.016935   0.021125
      3       0.021345  -0.023376  -0.023728  -0.021546   0.009888   0.006089
      4       0.001661   0.005964   0.010703   0.007058  -0.008115  -0.009259
      5       0.005764  -0.018815  -0.012508   0.035710  -0.044128   0.044537
      6       0.014203  -0.017817  -0.007150  -0.094146   0.006025   0.074869
      7      -0.005220   0.005612   0.003703   0.027802  -0.076277  -0.085519
      8      -0.014435   0.008692   0.018596  -0.020677   0.017108   0.004027
      9       0.002682  -0.006543  -0.001519   0.063486  -0.254970  -0.072034
     10      -0.001555   0.001512   0.001546  -0.035610   0.142932   0.046615
     11      -0.007142  -0.002156   0.000618  -0.024269  -0.026869   0.033069
     12      -0.006146   0.004202   0.005163   0.019450   0.100356   0.240791
     13       0.003702  -0.004143  -0.002806  -0.007520  -0.080117  -0.151493
     14      -0.011408   0.008986   0.001515  -0.018348  -0.023619  -0.032401
     15      -0.000079   0.000089  -0.000012   0.002240   0.052705  -0.129653
     16      -0.000015  -0.000024  -0.000224   0.017924   0.011973   0.101682
     17      -0.010954   0.021026  -0.000610   0.015388   0.055122  -0.055198
     18       0.233555   0.329275  -0.034240   0.164908   0.125810  -0.078035
     19      -0.132269  -0.228536   0.085739  -0.068473  -0.087447   0.089600
     20       0.262718   0.353987  -0.178274   0.030097  -0.035916   0.048585
     21      -0.003650  -0.047457   0.767230   0.134135   0.173517  -0.043370
     22      -0.008872   0.001921  -0.347394  -0.033932   0.033911   0.064162
     23      -0.032307   0.055483  -0.316849   0.126458   0.111971  -0.049398
     24       0.010031  -0.249383   0.193174   0.084318  -0.108201  -0.040876
     25      -0.012646   0.109897  -0.039848  -0.008450   0.136692   0.054995
     26       0.014965   0.153443  -0.095688   0.092959   0.019129   0.050070
     27      -0.188777   0.135942   0.002702   0.056340   0.170135   0.002548
     28       0.056890  -0.050565  -0.005840   0.000602  -0.096682  -0.008458
     29       0.132652  -0.155219  -0.016999  -0.013356  -0.046103   0.016952
     30      -0.735157   0.012982  -0.141559   0.019877  -0.118729   0.009192
     31       0.287890  -0.000719   0.055932   0.020136   0.010311  -0.007950
     32       0.393007  -0.077227   0.048979  -0.045887  -0.147114   0.115246
     33      -0.068670   0.635347   0.224439  -0.083432  -0.248216   0.061510
     34       0.013147  -0.145900  -0.048961   0.033790   0.201790  -0.016043
     35       0.067044  -0.313796  -0.096560   0.084738   0.027585   0.032729
     36      -0.058638   0.099674   0.042945  -0.073356   0.074506   0.073319
     37       0.010403  -0.026584  -0.007870   0.026688   0.130954  -0.015515
     38       0.034354  -0.085583  -0.034995   0.138861   0.108881  -0.058852
     39       0.024515  -0.026805  -0.013279  -0.044037  -0.025879   0.103847
     40      -0.012645   0.009548   0.006535   0.033207   0.006800  -0.075839
     41       0.022755  -0.071710  -0.028718  -0.043352  -0.018260   0.007742
     42       0.043848  -0.073308  -0.017472  -0.104104  -0.291230   0.117953
     43      -0.020613   0.032969   0.008749   0.059251   0.128186  -0.085572
     44       0.043322  -0.054184  -0.013583  -0.064752  -0.129534   0.093344
     45       0.005609  -0.011115   0.002722  -0.046977   0.570706  -0.740876
     46      -0.004243   0.006131   0.004098  -0.072899  -0.341396   0.391021
     47      -0.002212   0.001762   0.047052  -0.902168  -0.077632  -0.226640


-----------
IR SPECTRUM
-----------

 Mode    freq (cm**-1)   T**2         TX         TY         TZ
-------------------------------------------------------------------
  35:       432.72   13.249379  ( -0.922062  -3.061490  -1.739672)
  36:      1142.28   23.423162  (  2.117194   0.639357   4.304866)
  37:      1319.50   37.575922  ( -0.554499  -1.744261   5.850300)
  38:      1897.64   95.342327  ( -6.243294   2.121544   7.201574)
  39:      2205.57    2.545288  (  0.833128  -1.360583   0.000711)
  40:      2444.46   28.040845  (  3.684383  -3.023096  -2.308042)
  41:      3068.34   77.521688  ( -2.543047  -3.292376  -7.759824)
  42:      3188.45   17.141326  ( -1.109486   3.530786  -1.855780)
  43:      3291.08  163.680242  ( -1.819745  -9.885059  -7.915451)
  44:      3596.45   11.201946  (  1.316128  -2.564725  -1.700570)
  45:      9481.81   23.805664  ( -2.732781   2.647613  -3.054132)
  46:     27380.61  1109.564720  ( 21.967494  -2.608697 -24.903587)
  47:     42539.42  740.749418  ( -4.382757  -0.630399 -26.854114)

The first frequency considered to be a vibration is 35
The total number of vibrations considered is 13


--------------------------
THERMOCHEMISTRY AT 298.15K
--------------------------

Temperature         ... 298.15 K
Pressure            ... 1.00 atm
Total Mass          ... 88.13 AMU

Throughout the following assumptions are being made:
  (1) The electronic state is orbitally nondegenerate
  (2) There are no thermally accessible electronically excited states
  (3) Hindered rotations indicated by low frequency modes) are not
      treated as such but are treated as vibrations and this may
      case some error
  (4) All equations used are the standard statistical mechanics
      equations for an ideal gas
  (5) All vibrations are strinctly harmonic


------------
INNER ENERGY
------------

The inner energy is: U= E(el) + E(ZPE) + E(vib) + E(rot) + E(trans)
    E(el)   - is the total energy from the electronic structure calculation
              = E(kin-el) + E(nuc-el) + E(el-el) + E(nuc-nuc)
    E(ZPE)  - the the zero temperature vibrational energy from the frequency calculation
    E(vib)  - the the finite temperature correction to E(ZPE) due to population
              of excietd vibrational states
    E(rot)  - is the rotational thermal energy
    E(trans)- is the translational thermal energy

Summary of contributions to the inner energy U:
Electronic energy                ...   -287.92344208 Eh
Zero point energy                ...      0.23234653 Eh     145.80 kcal/mol
Thermal vibrational correction   ...      0.00031157 Eh       0.20 kcal/mol
Thermal rotational correction    ...      0.00141627 Eh       0.89 kcal/mol
Thermal translational correction ...      0.00141627 Eh       0.89 kcal/mol
-----------------------------------------------------------------------
Total thermal energy                   -287.68795144 Eh


Summary of corrections to the electronic energy:
(perhaps to be used in another calculation)
Total thermal correction                  0.00314411 Eh       1.97 kcal/mol
Non-thermal (ZPE) correction              0.23234653 Eh     145.80 kcal/mol
-----------------------------------------------------------------------
Total correction                          0.23549064 Eh     147.77 kcal/mol


--------
ENTHALPY
--------

The enthalpy is H = U + kB*T
                kB is Boltzmann's constant
Total free energy                 ...   -287.68795144 Eh 
Thermal Enthalpy correction       ...      0.00094421 Eh       0.59 kcal/mol
-----------------------------------------------------------------------
Total Enthalpy                    ...   -287.68700723 Eh


-------
ENTROPY
-------

The entropy contributions are T*S = T*(S(el)+S(vib)+S(rot)+S(trans)
     S(el)   - electronic entropy
     S(vib)  - vibrational entropy
     S(rot)  - rotational entropy
     S(trans)- translational entropy
The entropies will be listed as mutliplied by the temperature to get
units of energy

Electronic entropy                ...      0.00000000 Eh      0.00 kcal/mol
Vibrational entropy               ...      0.00044205 Eh      0.28 kcal/mol
Rotational entropy                ...      0.01174767 Eh      7.37 kcal/mol
Translational entropy             ...      0.01869229 Eh     11.73 kcal/mol
-----------------------------------------------------------------------
Final entropy term                ...      0.03088200 Eh     19.38 kcal/mol


CAUTION: The rotational entropy is not quite correctly treated here
         because it includes a symmetry number that is not yet correctly
         implemented in ORCA!
For a nonlinear molecule the correct rotational entropy is:
    S(rot) = R*(ln(qrot/sn)+1.5)
    R    = 8.31441 J/mol/K = 1.987191683e-3 kcal/mol/K
    qrot = 169531.2248332
    sn is the rotational symmetry number. We have assumed 3 here
       if it is different for your molecule then you should correct
       the printed rotational entropy by manually evaluating the equation
       as given above

For convenience we print out the resulting values for sn=1 - 12:
 sn= 1  qrot/sn=  169531.2248 T*S(rot)=     8.02 kcal/mol T*S(tot)=    20.03 kcal/mol
 sn= 2  qrot/sn=   84765.6124 T*S(rot)=     7.61 kcal/mol T*S(tot)=    19.62 kcal/mol
 sn= 3  qrot/sn=   56510.4083 T*S(rot)=     7.37 kcal/mol T*S(tot)=    19.38 kcal/mol
 sn= 4  qrot/sn=   42382.8062 T*S(rot)=     7.20 kcal/mol T*S(tot)=    19.21 kcal/mol
 sn= 5  qrot/sn=   33906.2450 T*S(rot)=     7.07 kcal/mol T*S(tot)=    19.08 kcal/mol
 sn= 6  qrot/sn=   28255.2041 T*S(rot)=     6.96 kcal/mol T*S(tot)=    18.97 kcal/mol
 sn= 7  qrot/sn=   24218.7464 T*S(rot)=     6.87 kcal/mol T*S(tot)=    18.88 kcal/mol
 sn= 8  qrot/sn=   21191.4031 T*S(rot)=     6.79 kcal/mol T*S(tot)=    18.80 kcal/mol
 sn= 9  qrot/sn=   18836.8028 T*S(rot)=     6.72 kcal/mol T*S(tot)=    18.73 kcal/mol
 sn=10  qrot/sn=   16953.1225 T*S(rot)=     6.66 kcal/mol T*S(tot)=    18.67 kcal/mol
 sn=11  qrot/sn=   15411.9295 T*S(rot)=     6.60 kcal/mol T*S(tot)=    18.61 kcal/mol
 sn=12  qrot/sn=   14127.6021 T*S(rot)=     6.55 kcal/mol T*S(tot)=    18.56 kcal/mol


-------------------
GIBBS FREE ENTHALPY
-------------------

The Gibbs free enthalpy is G = H - T*S

Total enthalpy                    ...   -287.68700723 Eh 
Total entropy correction          ...     -0.03088200 Eh    -19.38 kcal/mol
-----------------------------------------------------------------------
Final Gibbs free enthalpy         ...   -287.71788923 Eh

For completeness - the Gibbs free enthalpy minus the electronic energy
G-E(el)                           ...      0.20555285 Eh    128.99 kcal/mol


Timings for individual modules:

Sum of individual times         ...     1932.933 sec (=  32.216 min)
GTO integral calculation        ...       21.089 sec (=   0.351 min)   1.1 %
SCF iterations                  ...      319.365 sec (=   5.323 min)  16.5 %
SCF Gradient evaluation         ...      210.100 sec (=   3.502 min)  10.9 %
Geometry relaxation             ...        0.803 sec (=   0.013 min)   0.0 %
Analytical frequency calculation...     1381.576 sec (=  23.026 min)  71.5 %
                             ****ORCA TERMINATED NORMALLY****
TOTAL RUN TIME: 0 days 0 hours 32 minutes 15 seconds 82 msec
