
                                 *****************
                                 * O   R   C   A *
                                 *****************

           --- An Ab Initio, DFT and Semiempirical electronic structure package ---

                  #######################################################
                  #                        -***-                        #
                  #  Department of molecular theory and spectroscopy    #
                  #              Directorship: Frank Neese              #
                  # Max Planck Institute for Chemical Energy Conversion #
                  #                  D-45470 Muelheim/Ruhr              #
                  #                       Germany                       #
                  #                                                     #
                  #                  All rights reserved                #
                  #                        -***-                        #
                  #######################################################


                         Program Version 3.0.3 - RELEASE   -


 With contributions from (in alphabetic order):
   Ute Becker             : Parallelization
   Dmytro Bykov           : SCF Hessian
   Dmitry Ganyushin       : Spin-Orbit,Spin-Spin,Magnetic field MRCI
   Andreas Hansen         : Spin unrestricted coupled pair/coupled cluster methods
   Dimitrios Liakos       : Extrapolation schemes; parallel MDCI
   Robert Izsak           : Overlap fitted RIJCOSX, COSX-SCS-MP3
   Christian Kollmar      : KDIIS, OOCD, Brueckner-CCSD(T), CCSD density
   Simone Kossmann        : Meta GGA functionals, TD-DFT gradient, OOMP2, MP2 Hessian
   Taras Petrenko         : DFT Hessian,TD-DFT gradient, ASA and ECA modules, normal mode analysis, Resonance Raman, ABS, FL, XAS/XES, NRVS
   Christoph Reimann      : Effective Core Potentials
   Michael Roemelt        : Restricted open shell CIS
   Christoph Riplinger    : Improved optimizer, TS searches, QM/MM, DLPNO-CCSD
   Barbara Sandhoefer     : DKH picture change effects
   Igor Schapiro          : Molecular dynamics
   Kantharuban Sivalingam : CASSCF convergence, NEVPT2
   Boris Wezisla          : Elementary symmetry handling
   Frank Wennmohs         : Technical directorship


 We gratefully acknowledge several colleagues who have allowed us to
 interface, adapt or use parts of their codes:
   Stefan Grimme, W. Hujo, H. Kruse, T. Risthaus : VdW corrections, initial TS optimization,
                                                   DFT functionals, gCP
   Ed Valeev                                     : LibInt (2-el integral package), F12 methods
   Garnet Chan, S. Sharma, R. Olivares           : DMRG
   Ulf Ekstrom                                   : XCFun DFT Library
   Mihaly Kallay                                 : mrcc  (arbitrary order and MRCC methods)
   Andreas Klamt, Michael Diedenhofen            : otool_cosmo (COSMO solvation model)
   Frank Weinhold                                : gennbo (NPA and NBO analysis)
   Christopher J. Cramer and Donald G. Truhlar   : smd solvation model


 Your calculation uses the libint2 library for the computation of 2-el integrals
 For citations please refer to: http://libint.valeyev.net

 This ORCA versions uses:
   CBLAS   interface :  Fast vector & matrix operations
   LAPACKE interface :  Fast linear algebra routines
   SCALAPACK package :  Parallel linear algebra routines


Your calculation utilizes the basis: Ahlrichs-TZV
Cite in your paper:
H - Kr: A. Schaefer, H. Horn and R. Ahlrichs, J. Chem. Phys. 97, 2571 (1992).

The def2-TZV basis will be loaded
Cite in your paper:
 	F. Weigend, R. Ahlrichs, Phys. Chem. Chem. Phys. 2005, 7, 3297.

================================================================================
                                        WARNINGS
                       Please study these warnings very carefully!
================================================================================
Now building the actual basis set
WARNING: Geometry optimizations can change the point-group symmetry!

WARNING: Geometry Optimization
  ===> : Switching off AutoStart
         For restart on a previous wavefunction, please use MOREAD


INFO   : the flag for use of LIBINT has been found!

================================================================================
                                       INPUT FILE
================================================================================
NAME = 1640_+.inp
|  1> ! NORI PBE0 def2-TZVP UseSym TightOPT Freq TightSCF Grid3 FinalGrid5 XYZFile
|  2> % pal
|  3>     nprocs 8
|  4> end
|  5> %method
|  6>     SymThresh 5.0e-2
|  7> end
|  8> % geom 
|  9>     MaxIter 10
| 10> end 
| 11> % maxcore 2000
| 12> % output
| 13>     printlevel mini
| 14>     print[ P_Basis ] 0
| 15>     print[ P_SCFInfo ] 1
| 16>     print[ P_SCFIterInfo ] 1
| 17>     print[ P_OrbEn ] 0
| 18>     print[ P_Cartesian ] 0
| 19> end
| 20> % elprop
| 21>     Dipole false
| 22> end
| 23> *xyz 1 1
| 24>  C        0.6299003801     0.0399289604    -0.2230654017 
| 25>  C        2.1226961138     0.0811454971    -0.0303361113 
| 26>  C        3.1216185567    -0.8521653622    -0.6516850499 
| 27>  C        2.7495530892    -1.6556827543    -1.8621443025 
| 28>  N        2.2010909917    -0.6443462401    -2.8446220404 
| 29>  C        2.7254416914     0.7259128621    -2.4670619375 
| 30>  C        3.1174933091     0.6083990682    -1.0228576753 
| 31>  H        0.1738748045     0.9210237629     0.2317781645 
| 32>  H        0.1947358070    -0.8378443843     0.2594471987 
| 33>  H        0.2930297916     0.0448166921    -1.2646433756 
| 34>  H        2.3948541684     0.3319451792     0.9897458169 
| 35>  H        3.9098364978    -1.2668322484    -0.0366199636 
| 36>  H        3.6272185056    -2.1198681816    -2.3117950443 
| 37>  H        1.9868248496    -2.4203683249    -1.7051726211 
| 38>  H        2.4416404315    -0.8851802199    -3.8054868163 
| 39>  H        1.1838005052    -0.6445742063    -2.7878814383 
| 40>  H        1.9449497641     1.4562224503    -2.6863777151 
| 41>  H        3.5919934190     0.9363395208    -3.0937295638 
| 42>  H        3.9067173237     1.2717079290    -0.6930421235 
| 43> *
| 44> 
| 45>                          ****END OF INPUT****
================================================================================

The point group is C1 - hence turning off symmetry
If this is a round-off problem, please increase the symmetry
        detection tolerance (%method SymThresh)


                       *****************************
                       * Geometry Optimization Run *
                       *****************************

Geometry optimization settings:
Update method            Update   .... BFGS
Choice of coordinates    CoordSys .... Redundant Internals
Initial Hessian          InHess   .... Almoef's Model

Convergence Tolerances:
Energy Change            TolE     ....  1.0000e-06 Eh
Max. Gradient            TolMAXG  ....  1.0000e-04 Eh/bohr
RMS Gradient             TolRMSG  ....  3.0000e-05 Eh/bohr
Max. Displacement        TolMAXD  ....  1.0000e-03 bohr
RMS Displacement         TolRMSD  ....  6.0000e-04 bohr

------------------------------------------------------------------------------
                        ORCA OPTIMIZATION COORDINATE SETUP
------------------------------------------------------------------------------

The optimization will be done in new redundant internal coordinates
Making redundant internal coordinates   ...  (new redundants) done
Evaluating the initial hessian          ...  (Almloef) done
Evaluating the coordinates              ...  done
Calculating the B-matrix                .... done
Calculating the G-matrix                .... done
Diagonalizing the G-matrix              .... done
The first mode is                       ....   80
The number of degrees of freedom        ....   51

    -----------------------------------------------------------------
                    Redundant Internal Coordinates


    -----------------------------------------------------------------
         Definition                    Initial Value    Approx d2E/dq
    -----------------------------------------------------------------
      1. B(C   1,C   0)                  1.5057         0.408382   
      2. B(C   2,C   1)                  1.5017         0.414561   
      3. B(C   3,C   2)                  1.4998         0.417466   
      4. B(N   4,C   3)                  1.5129         0.356280   
      5. B(C   5,N   4)                  1.5150         0.353597   
      6. B(C   6,C   2)                  1.5070         0.406518   
      7. B(C   6,C   1)                  1.5009         0.415715   
      8. B(C   6,C   5)                  1.5011         0.415449   
      9. B(H   7,C   0)                  1.0914         0.358243   
     10. B(H   8,C   0)                  1.0921         0.357339   
     11. B(H   9,C   0)                  1.0947         0.353923   
     12. B(H  10,C   1)                  1.0851         0.366581   
     13. B(H  11,C   2)                  1.0824         0.370326   
     14. B(H  12,C   3)                  1.0899         0.360191   
     15. B(H  13,C   3)                  1.0914         0.358262   
     16. B(H  14,N   4)                  1.0194         0.418059   
     17. B(H  15,N   4)                  1.0189         0.418833   
     18. B(H  16,C   5)                  1.0912         0.358575   
     19. B(H  17,C   5)                  1.0899         0.360219   
     20. B(H  18,C   6)                  1.0824         0.370269   
     21. A(H   8,C   0,H   9)          107.5386         0.289700   
     22. A(C   1,C   0,H   9)          115.2608         0.328173   
     23. A(C   1,C   0,H   7)          109.8036         0.328831   
     24. A(C   1,C   0,H   8)          111.1302         0.328694   
     25. A(H   7,C   0,H   9)          105.3277         0.289815   
     26. A(H   7,C   0,H   8)          107.3524         0.290252   
     27. A(C   0,C   1,C   2)          126.1226         0.375614   
     28. A(C   6,C   1,H  10)          111.9755         0.331056   
     29. A(C   0,C   1,C   6)          125.5963         0.375794   
     30. A(C   2,C   1,H  10)          111.4552         0.330904   
     31. A(C   0,C   1,H  10)          112.0425         0.330083   
     32. A(C   2,C   1,C   6)           60.2518         0.376771   
     33. A(C   1,C   2,C   6)           59.8492         0.375317   
     34. A(C   6,C   2,H  11)          120.8811         0.330388   
     35. A(C   3,C   2,H  11)          115.7245         0.331845   
     36. A(C   1,C   2,H  11)          119.1702         0.331461   
     37. A(C   1,C   2,C   3)          120.1269         0.377044   
     38. A(C   3,C   2,C   6)          108.6501         0.375770   
     39. A(N   4,C   3,H  13)          107.9638         0.319625   
     40. A(C   2,C   3,H  13)          115.6374         0.330031   
     41. A(N   4,C   3,H  12)          107.9812         0.319905   
     42. A(C   2,C   3,H  12)          111.1846         0.330324   
     43. A(C   2,C   3,N   4)          104.8283         0.365044   
     44. A(H  12,C   3,H  13)          108.8864         0.290617   
     45. A(C   5,N   4,H  14)          111.5265         0.324638   
     46. A(C   3,N   4,H  14)          111.6321         0.325041   
     47. A(C   3,N   4,C   5)          108.5001         0.352675   
     48. A(H  14,N   4,H  15)          106.7413         0.300031   
     49. A(C   5,N   4,H  15)          109.3842         0.324737   
     50. A(C   3,N   4,H  15)          109.0047         0.325140   
     51. A(N   4,C   5,C   6)          105.0326         0.364271   
     52. A(C   6,C   5,H  17)          111.1398         0.330064   
     53. A(N   4,C   5,H  17)          107.8494         0.319515   
     54. A(C   6,C   5,H  16)          115.6323         0.329815   
     55. A(N   4,C   5,H  16)          107.9211         0.319276   
     56. A(H  16,C   5,H  17)          108.9000         0.290661   
     57. A(C   2,C   6,C   5)          108.2737         0.375456   
     58. A(C   1,C   6,C   5)          119.3812         0.376910   
     59. A(C   5,C   6,H  18)          115.8246         0.331570   
     60. A(C   2,C   6,H  18)          121.1230         0.330380   
     61. A(C   1,C   6,H  18)          119.8046         0.331605   
     62. A(C   1,C   6,C   2)           59.8990         0.375497   
     63. D(C   6,C   1,C   0,H   7)    -95.3796         0.013214   
     64. D(H  10,C   1,C   0,H   9)    165.1873         0.013214   
     65. D(C   2,C   1,C   0,H   8)     69.4742         0.013214   
     66. D(C   6,C   1,C   0,H   8)    145.9995         0.013214   
     67. D(H  10,C   1,C   0,H   8)    -72.1568         0.013214   
     68. D(C   2,C   1,C   0,H   9)    -53.1817         0.013214   
     69. D(H  10,C   1,C   0,H   7)     46.4641         0.013214   
     70. D(C   2,C   1,C   0,H   7)   -171.9049         0.013214   
     71. D(C   6,C   1,C   0,H   9)     23.3436         0.013214   
     72. D(C   6,C   2,C   1,C   0)    114.3863         0.013606   
     73. D(C   6,C   2,C   1,H  10)   -103.7979         0.013606   
     74. D(H  11,C   2,C   1,C   0)   -134.7873         0.013606   
     75. D(C   3,C   2,C   1,C   0)     19.1938         0.013606   
     76. D(C   3,C   2,C   1,C   6)    -95.1925         0.013606   
     77. D(H  11,C   2,C   1,H  10)      7.0285         0.013606   
     78. D(H  11,C   2,C   1,C   6)    110.8264         0.013606   
     79. D(C   3,C   2,C   1,H  10)    161.0096         0.013606   
     80. D(H  13,C   3,C   2,H  11)     87.9519         0.013793   
     81. D(H  13,C   3,C   2,C   6)   -132.2382         0.013793   
     82. D(H  13,C   3,C   2,C   1)    -66.8866         0.013793   
     83. D(H  12,C   3,C   2,H  11)    -36.8726         0.013793   
     84. D(H  12,C   3,C   2,C   6)    102.9373         0.013793   
     85. D(N   4,C   3,C   2,H  11)   -153.3016         0.013793   
     86. D(N   4,C   3,C   2,C   6)    -13.4917         0.013793   
     87. D(N   4,C   3,C   2,C   1)     51.8600         0.013793   
     88. D(H  12,C   3,C   2,C   1)    168.2889         0.013793   
     89. D(C   5,N   4,C   3,H  12)    -97.0917         0.011680   
     90. D(C   5,N   4,C   3,C   2)     21.5246         0.011680   
     91. D(H  14,N   4,C   3,C   2)    144.8187         0.011680   
     92. D(C   5,N   4,C   3,H  13)    145.3285         0.011680   
     93. D(H  14,N   4,C   3,H  12)     26.2023         0.011680   
     94. D(H  15,N   4,C   3,H  13)     26.2894         0.011680   
     95. D(H  15,N   4,C   3,H  12)    143.8692         0.011680   
     96. D(H  15,N   4,C   3,C   2)    -97.5145         0.011680   
     97. D(H  14,N   4,C   3,H  13)    -91.3774         0.011680   
     98. D(H  17,C   5,N   4,H  15)   -143.7554         0.011513   
     99. D(H  17,C   5,N   4,C   3)     97.4446         0.011513   
    100. D(H  16,C   5,N   4,H  15)    -26.2528         0.011513   
    101. D(H  16,C   5,N   4,H  14)     91.5896         0.011513   
    102. D(H  16,C   5,N   4,C   3)   -145.0528         0.011513   
    103. D(C   6,C   5,N   4,H  15)     97.6383         0.011513   
    104. D(H  17,C   5,N   4,H  14)    -25.9130         0.011513   
    105. D(C   6,C   5,N   4,H  14)   -144.5193         0.011513   
    106. D(C   6,C   5,N   4,C   3)    -21.1617         0.011513   
    107. D(C   1,C   6,C   5,H  16)     66.0991         0.013663   
    108. D(C   1,C   6,C   5,N   4)    -52.7331         0.013663   
    109. D(H  18,C   6,C   2,H  11)      0.7072         0.013098   
    110. D(H  18,C   6,C   2,C   1)    108.7298         0.013098   
    111. D(C   5,C   6,C   2,H  11)    138.0367         0.013098   
    112. D(C   5,C   6,C   2,C   3)      0.6775         0.013098   
    113. D(C   5,C   6,C   2,C   1)   -113.9406         0.013098   
    114. D(C   1,C   6,C   2,H  11)   -108.0227         0.013098   
    115. D(C   1,C   6,C   2,C   3)    114.6181         0.013098   
    116. D(H  18,C   6,C   1,H  10)     -7.9575         0.013680   
    117. D(H  18,C   6,C   1,C   2)   -110.8830         0.013680   
    118. D(H  18,C   6,C   1,C   0)    133.9075         0.013680   
    119. D(C   5,C   6,C   1,H  10)   -161.9375         0.013680   
    120. D(H  18,C   6,C   2,C   3)   -136.6521         0.013098   
    121. D(C   5,C   6,C   1,C   2)     95.1370         0.013680   
    122. D(C   5,C   6,C   1,C   0)    -20.0726         0.013680   
    123. D(C   2,C   6,C   1,H  10)    102.9255         0.013680   
    124. D(C   1,C   6,C   5,H  17)   -169.1001         0.013663   
    125. D(C   2,C   6,C   1,C   0)   -115.2095         0.013680   
    126. D(H  18,C   6,C   5,H  17)     35.9172         0.013663   
    127. D(H  18,C   6,C   5,H  16)    -88.8836         0.013663   
    128. D(H  18,C   6,C   5,N   4)    152.2842         0.013663   
    129. D(C   2,C   6,C   5,H  17)   -103.9476         0.013663   
    130. D(C   2,C   6,C   5,H  16)    131.2516         0.013663   
    131. D(C   2,C   6,C   5,N   4)     12.4195         0.013663   
    -----------------------------------------------------------------

Number of atoms                         .... 19
Number of degrees of freedom            .... 131

         *************************************************************
         *                GEOMETRY OPTIMIZATION CYCLE   1            *
         *************************************************************


           ************************************************************
           *        Program running with 8 parallel MPI-processes     *
           *              working on a common directory               *
           ************************************************************
           ************************************************************
           *              Shut down parallel processing               *
           ************************************************************


           ************************************************************
           *        Program running with 8 parallel MPI-processes     *
           *              working on a common directory               *
           ************************************************************
------------
SCF SETTINGS
------------
Hamiltonian:
 Density Functional     Method          .... DFT(GTOs)
 Exchange Functional    Exchange        .... PBE
   PBE kappa parameter  XKappa          ....  0.804000
 Correlation Functional Correlation     .... PBE
 LDA part of GGA corr.  LDAOpt          .... PW91-LDA
 Gradients option       PostSCFGGA      .... off
 Hybrid DFT is turned on
   Fraction HF Exchange ScalHFX         ....  0.250000
   Scaling of DF-GGA-X  ScalDFX         ....  0.750000
   Scaling of DF-GGA-C  ScalDFC         ....  1.000000
   Scaling of DF-LDA-C  ScalLDAC        ....  1.000000
   Perturbative correction              ....  0.000000
   NL short-range parameter             ....  6.900000


General Settings:
 Integral files         IntName         .... 1640_+
 Hartree-Fock type      HFTyp           .... RHF
 Total Charge           Charge          ....    1
 Multiplicity           Mult            ....    1
 Number of Electrons    NEL             ....   54
 Basis Dimension        Dim             ....  289
 Nuclear Repulsion      ENuc            ....    334.0336215041 Eh

Convergence Acceleration:
 DIIS                   CNVDIIS         .... on
   Start iteration      DIISMaxIt       ....    12
   Startup error        DIISStart       ....  0.200000
   # of expansion vecs  DIISMaxEq       ....     5
   Bias factor          DIISBfac        ....   1.050
   Max. coefficient     DIISMaxC        ....  10.000
 Newton-Raphson         CNVNR           .... off
 SOSCF                  CNVSOSCF        .... on
   Start iteration      SOSCFMaxIt      ....   150
   Startup grad/error   SOSCFStart      ....  0.003300
 Level Shifting         CNVShift        .... on
   Level shift para.    LevelShift      ....    0.2500
   Turn off err/grad.   ShiftErr        ....    0.0010
 Zerner damping         CNVZerner       .... off
 Static damping         CNVDamp         .... on
   Fraction old density DampFac         ....    0.7000
   Max. Damping (<1)    DampMax         ....    0.9800
   Min. Damping (>=0)   DampMin         ....    0.0000
   Turn off err/grad.   DampErr         ....    0.1000
 Fernandez-Rico         CNVRico         .... off

SCF Procedure:
 Maximum # iterations   MaxIter         ....   125
 SCF integral mode      SCFMode         .... Direct
   Integral package                     .... LIBINT
 Reset frequeny         DirectResetFreq ....    20
 Integral Threshold     Thresh          ....  2.500e-11 Eh
 Primitive CutOff       TCut            ....  2.500e-12 Eh

Convergence Tolerance:
 Convergence Check Mode ConvCheckMode   .... Total+1el-Energy
 Energy Change          TolE            ....  1.000e-08 Eh
 1-El. energy change                    ....  1.000e-05 Eh
 Orbital Gradient       TolG            ....  1.000e-05
 Orbital Rotation angle TolX            ....  1.000e-05
 DIIS Error             TolErr          ....  5.000e-07


Diagonalization of the overlap matrix:
Smallest eigenvalue                        ... 1.001e-04
Time for diagonalization                   ...    0.405 sec
Threshold for overlap eigenvalues          ... 1.000e-08
Number of eigenvalues below threshold      ... 0
Time for construction of square roots      ...    0.062 sec
Total time needed                          ...    0.468 sec

-------------------
DFT GRID GENERATION
-------------------

General Integration Accuracy     IntAcc      ...  4.340
Radial Grid Type                 RadialGrid  ... Gauss-Chebyshev
Angular Grid (max. acc.)         AngularGrid ... Lebedev-194
Angular grid pruning method      GridPruning ... 3 (G Style)
Weight generation scheme         WeightScheme... Becke
Basis function cutoff            BFCut       ...    1.0000e-11
Integration weight cutoff        WCut        ...    1.0000e-14
Grids for H and He will be reduced by one unit

# of grid points (after initial pruning)     ...  41338 (   0.0 sec)
# of grid points (after weights+screening)   ...  37312 (   0.3 sec)
nearest neighbour list constructed           ...    0.0 sec
Grid point re-assignment to atoms done       ...    0.0 sec
Grid point division into batches done        ...    0.1 sec
Reduced shell lists constructed in    0.1 sec

Total number of grid points                  ...    37312
Total number of batches                      ...      594
Average number of points per batch           ...       62
Average number of grid points per atom       ...     1964
Average number of shells per batch           ...   104.45 (83.56%)
Average number of basis functions per batch  ...   254.97 (88.23%)
Average number of large shells per batch     ...    86.72 (83.03%)
Average number of large basis fcns per batch ...   210.28 (82.47%)
Maximum spatial batch extension              ...   2.33,  3.79,  2.68 au
Average spatial batch extension              ...   0.16,  0.16,  0.16 au

Time for grid setup =    0.737 sec

Loading Hartree-Fock densities                     ... done
Calculating cut-offs                               ... done
Setting up the integral package                    ... done
Initializing the effective Hamiltonian             ... done
Starting the Coulomb interaction                   ... done (   0.0 sec)
Reading the grid                                   ... done
Mapping shells                                     ... done
Starting the XC term evaluation                    ... done (   0.5 sec)
  promolecular density results
     # of electrons  =     54.994746608
     EX              =    -40.870212572
     EC              =     -1.827778637
     EX+EC           =    -42.697991209
Transforming the Hamiltonian                       ... done (   0.0 sec)
Diagonalizing the Hamiltonian                      ... done (   0.2 sec)
Back transforming the eigenvectors                 ... done (   0.0 sec)
Now organizing SCF variables                       ... done
--------------
SCF ITERATIONS
--------------
ITER       Energy         Delta-E        Max-DP      RMS-DP      [F,P]     Damp
               ***  Starting incremental Fock matrix formation  ***
  0   -289.9548492299   0.000000000000 0.03258750  0.00080359  0.1787531 0.7000
  1   -290.0213337998  -0.066484569907 0.02213690  0.00062686  0.0966293 0.7000
                               ***Turning on DIIS***
  2   -290.0507718525  -0.029438052679 0.03655789  0.00118549  0.0398722 0.0000
  3   -290.0940507499  -0.043278897413 0.01531879  0.00041068  0.0506685 0.0000
  4   -290.1044593531  -0.010408603182 0.00412075  0.00013531  0.0075456 0.0000
                      *** Initiating the SOSCF procedure ***
                           *** Shutting down DIIS ***
                      *** Re-Reading the Fockian *** 
                      *** Removing any level shift *** 
ITER      Energy       Delta-E        Grad      Rot      Max-DP    RMS-DP
  5   -290.10483450  -0.0003751505  0.000389  0.000389  0.002233  0.000049
               *** Restarting incremental Fock matrix formation ***
  6   -290.10485378  -0.0000192747  0.000197  0.000645  0.001524  0.000030
  7   -290.10485483  -0.0000010469  0.000129  0.000113  0.000307  0.000007
  8   -290.10485616  -0.0000013368  0.000035  0.000053  0.000159  0.000004
  9   -290.10485618  -0.0000000163  0.000027  0.000018  0.000034  0.000001
 10   -290.10485621  -0.0000000274  0.000004  0.000008  0.000022  0.000000
                  ***Gradient check signals convergence***
              ***Rediagonalizing the Fockian in SOSCF/NRSCF***

               *****************************************************
               *                     SUCCESS                       *
               *           SCF CONVERGED AFTER  11 CYCLES          *
               *****************************************************

Setting up the final grid:

General Integration Accuracy     IntAcc      ...  5.010
Radial Grid Type                 RadialGrid  ... Gauss-Chebyshev
Angular Grid (max. acc.)         AngularGrid ... Lebedev-434
Angular grid pruning method      GridPruning ... 3 (G Style)
Weight generation scheme         WeightScheme... Becke
Basis function cutoff            BFCut       ...    1.0000e-11
Integration weight cutoff        WCut        ...    1.0000e-14
Grids for H and He will be reduced by one unit

# of grid points (after initial pruning)     ... 155082 (   0.0 sec)
# of grid points (after weights+screening)   ... 138143 (   0.3 sec)
nearest neighbour list constructed           ...    0.0 sec
Grid point re-assignment to atoms done       ...    0.1 sec
Grid point division into batches done        ...    1.6 sec
Reduced shell lists constructed in    2.1 sec

Total number of grid points                  ...   138143
Total number of batches                      ...     2170
Average number of points per batch           ...       63
Average number of grid points per atom       ...     7271
Average number of shells per batch           ...   103.21 (82.56%)
Average number of basis functions per batch  ...   252.08 (87.23%)
Average number of large shells per batch     ...    85.09 (82.45%)
Average number of large basis fcns per batch ...   206.36 (81.86%)
Maximum spatial batch extension              ...   2.05,  2.14,  1.99 au
Average spatial batch extension              ...   0.10,  0.10,  0.10 au

Final grid set up in    3.7 sec
Final integration                            ... done (   1.8 sec)
Change in XC energy                          ...     0.000452261
Integrated number of electrons               ...    54.000089903
Previous integrated no of electrons          ...    54.000302337
Total Energy       :         -290.10440394 Eh           -7894.14216 eV
  Last Energy change         ...    5.7878e-10  Tolerance :   1.0000e-08
  Last MAX-Density change    ...    6.1677e-06  Tolerance :   1.0000e-07
             **** THE GBW FILE WAS UPDATED (1640_+.gbw) ****
             **** DENSITY FILE WAS UPDATED (1640_+.scfp.tmp) ****
             **** ENERGY FILE WAS UPDATED (1640_+.en.tmp) ****
Total SCF time: 0 days 0 hours 2 min 25 sec 
           ************************************************************
           *              Shut down parallel processing               *
           ************************************************************

-------------------------   --------------------
FINAL SINGLE POINT ENERGY      -290.104403943635
-------------------------   --------------------



           ************************************************************
           *        Program running with 8 parallel MPI-processes     *
           *              working on a common directory               *
           ************************************************************
------------------------------------------------------------------------------
                         ORCA SCF GRADIENT CALCULATION
------------------------------------------------------------------------------

Gradient of the Kohn-Sham DFT energy:
Kohn-Sham wavefunction type      ... RKS
Hartree-Fock exchange scaling    ...    0.250
Number of operators              ...    1
Number of atoms                  ...   19
Basis set dimensions             ...  289
Integral neglect threshold       ... 2.5e-11
Integral primitive cutoff        ... 2.5e-12

Nuclear repulsion gradient       ... done
One Electron Gradient            ... done
Pre-screening matrix             ... done
Starting the two electron gradient:
Two electron gradient done
Exchange-correlation gradient    ... done

------------------
CARTESIAN GRADIENT
------------------

   1   C   :   -0.000223732   -0.000067890    0.000048074
   2   C   :   -0.000101687    0.000067364   -0.000191760
   3   C   :    0.000183904   -0.000235324    0.000152102
   4   C   :   -0.000184237    0.000233834    0.000038111
   5   N   :   -0.000323251   -0.000012915   -0.000024866
   6   C   :    0.000111154    0.000087146   -0.000031152
   7   C   :    0.000260306    0.000075943    0.000043375
   8   H   :    0.000124581   -0.000010414   -0.000024012
   9   H   :    0.000080589   -0.000061976   -0.000065636
  10   H   :   -0.000134458    0.000161645    0.000064331
  11   H   :   -0.000000719    0.000070670    0.000094999
  12   H   :   -0.000080259   -0.000040375    0.000033281
  13   H   :    0.000068919    0.000020435   -0.000068323
  14   H   :    0.000132419   -0.000122171   -0.000018599
  15   H   :    0.000007448    0.000048676   -0.000000294
  16   H   :    0.000234839   -0.000150277    0.000029692
  17   H   :   -0.000049587   -0.000040487   -0.000028311
  18   H   :   -0.000007517   -0.000078253   -0.000017051
  19   H   :   -0.000098713    0.000054369   -0.000033962

Norm of the cartesian gradient     ...    0.000874035
RMS gradient                       ...    0.000115769
MAX gradient                       ...    0.000323251

-------
TIMINGS
-------

Total SCF gradient time            ...       68.346 sec

One electron gradient       ....       0.274 sec  (  0.4%)
Prescreening matrices       ....       0.970 sec  (  1.4%)
Two electron gradient       ....      30.089 sec  ( 44.0%)
XC gradient                 ....       3.429 sec  (  5.0%)
           ************************************************************
           *              Shut down parallel processing               *
           ************************************************************
------------------------------------------------------------------------------
                         ORCA GEOMETRY RELAXATION STEP
------------------------------------------------------------------------------

Reading the OPT-File                    .... done
Getting information on internals        .... done
Copying old internal coords+grads       .... done
Making the new internal coordinates     .... (new redundants).... done
Validating the new internal coordinates .... (new redundants).... done
Calculating the B-matrix                .... done
Calculating the G,G- and P matrices     .... done
Transforming gradient to internals      .... done
Projecting the internal gradient        .... done
Number of atoms                         ....  19
Number of internal coordinates          .... 131
Current Energy                          ....  -290.104403944 Eh
Current gradient norm                   ....     0.000874035 Eh/bohr
Maximum allowed component of the step   ....  0.300
Current trust radius                    ....  0.300
Evaluating the initial hessian          ....  (Almloef) done
Projecting the Hessian                  .... done
Forming the augmented Hessian           .... done
Diagonalizing the augmented Hessian     .... done
Last element of RFO vector              ....  0.999977116
Lowest eigenvalues of augmented Hessian:
 -0.000002511  0.012903157  0.013214654  0.020655469  0.033688469
Length of the computed step             ....  0.006765321
The final length of the internal step   ....  0.006765321
Converting the step to cartesian space:
 Initial RMS(Int)=    0.0005910889
Transforming coordinates:
 Iter   0:  RMS(Cart)=    0.0013107868 RMS(Int)=    0.0005910692
 Iter   1:  RMS(Cart)=    0.0000011866 RMS(Int)=    0.0000007599
 Iter   2:  RMS(Cart)=    0.0000000027 RMS(Int)=    0.0000000015
done
Storing new coordinates                 .... done

                                .--------------------.
          ----------------------|Geometry convergence|---------------------
          Item                value                 Tolerance   Converged
          -----------------------------------------------------------------
          RMS gradient        0.00006307            0.00003000      NO
          MAX gradient        0.00026230            0.00010000      NO
          RMS step            0.00059109            0.00060000      YES
          MAX step            0.00258284            0.00100000      NO
          ....................................................
          Max(Bonds)      0.0003      Max(Angles)    0.05
          Max(Dihed)        0.15      Max(Improp)    0.00
          -----------------------------------------------------------------

The optimization has not yet converged - more geometry cycles are needed


    ---------------------------------------------------------------------------
                         Redundant Internal Coordinates
                            (Angstroem and degrees)

        Definition                    Value    dE/dq     Step     New-Value
    ----------------------------------------------------------------------------
     1. B(C   1,C   0)                1.5057 -0.000141  0.0002    1.5059   
     2. B(C   2,C   1)                1.5017  0.000008 -0.0001    1.5016   
     3. B(C   3,C   2)                1.4998 -0.000108  0.0001    1.4999   
     4. B(N   4,C   3)                1.5129 -0.000095  0.0002    1.5131   
     5. B(C   5,N   4)                1.5150  0.000041 -0.0000    1.5149   
     6. B(C   6,C   2)                1.5070  0.000116 -0.0002    1.5068   
     7. B(C   6,C   1)                1.5009 -0.000129  0.0002    1.5011   
     8. B(C   6,C   5)                1.5011 -0.000049  0.0001    1.5011   
     9. B(H   7,C   0)                1.0914  0.000065 -0.0001    1.0913   
    10. B(H   8,C   0)                1.0921  0.000101 -0.0001    1.0919   
    11. B(H   9,C   0)                1.0947  0.000072 -0.0001    1.0946   
    12. B(H  10,C   1)                1.0851 -0.000095  0.0001    1.0853   
    13. B(H  11,C   2)                1.0824  0.000058 -0.0001    1.0823   
    14. B(H  12,C   3)                1.0899 -0.000094  0.0001    1.0901   
    15. B(H  13,C   3)                1.0914  0.000177 -0.0003    1.0911   
    16. B(H  14,N   4)                1.0194 -0.000002  0.0000    1.0194   
    17. B(H  15,N   4)                1.0189  0.000237 -0.0003    1.0186   
    18. B(H  16,C   5)                1.0912 -0.000066  0.0001    1.0913   
    19. B(H  17,C   5)                1.0899 -0.000027  0.0000    1.0899   
    20. B(H  18,C   6)                1.0824  0.000113 -0.0002    1.0823   
    21. A(H   8,C   0,H   9)          107.54  0.000123   -0.03    107.51   
    22. A(C   1,C   0,H   9)          115.26 -0.000262    0.05    115.31   
    23. A(C   1,C   0,H   7)          109.80  0.000157   -0.02    109.78   
    24. A(C   1,C   0,H   8)          111.13  0.000083   -0.02    111.11   
    25. A(H   7,C   0,H   9)          105.33  0.000005    0.01    105.34   
    26. A(H   7,C   0,H   8)          107.35 -0.000105    0.02    107.37   
    27. A(C   0,C   1,C   2)          126.12 -0.000103    0.02    126.14   
    28. A(C   6,C   1,H  10)          111.98  0.000015   -0.01    111.97   
    29. A(C   0,C   1,C   6)          125.60 -0.000128    0.05    125.65   
    30. A(C   2,C   1,H  10)          111.46  0.000022   -0.02    111.44   
    31. A(C   0,C   1,H  10)          112.04  0.000096   -0.03    112.02   
    32. A(C   2,C   1,C   6)           60.25  0.000072   -0.01     60.24   
    33. A(C   1,C   2,C   6)           59.85 -0.000077    0.01     59.86   
    34. A(C   6,C   2,H  11)          120.88  0.000048    0.00    120.88   
    35. A(C   3,C   2,H  11)          115.72 -0.000067    0.01    115.74   
    36. A(C   1,C   2,H  11)          119.17  0.000052   -0.01    119.16   
    37. A(C   1,C   2,C   3)          120.13  0.000035   -0.02    120.11   
    38. A(C   3,C   2,C   6)          108.65  0.000015    0.00    108.65   
    39. A(N   4,C   3,H  13)          107.96 -0.000029   -0.00    107.96   
    40. A(C   2,C   3,H  13)          115.64  0.000004    0.01    115.65   
    41. A(N   4,C   3,H  12)          107.98  0.000039   -0.01    107.97   
    42. A(C   2,C   3,H  12)          111.18 -0.000054    0.01    111.19   
    43. A(C   2,C   3,N   4)          104.83  0.000028   -0.01    104.82   
    44. A(H  12,C   3,H  13)          108.89  0.000015   -0.00    108.88   
    45. A(C   5,N   4,H  14)          111.53 -0.000025    0.01    111.53   
    46. A(C   3,N   4,H  14)          111.63  0.000039   -0.01    111.62   
    47. A(C   3,N   4,C   5)          108.50  0.000007   -0.00    108.50   
    48. A(H  14,N   4,H  15)          106.74 -0.000005    0.00    106.74   
    49. A(C   5,N   4,H  15)          109.38  0.000073   -0.03    109.36   
    50. A(C   3,N   4,H  15)          109.00 -0.000090    0.03    109.03   
    51. A(N   4,C   5,C   6)          105.03  0.000015   -0.01    105.03   
    52. A(C   6,C   5,H  17)          111.14 -0.000010    0.02    111.16   
    53. A(N   4,C   5,H  17)          107.85 -0.000046    0.02    107.87   
    54. A(C   6,C   5,H  16)          115.63 -0.000018   -0.00    115.63   
    55. A(N   4,C   5,H  16)          107.92  0.000030   -0.01    107.91   
    56. A(H  16,C   5,H  17)          108.90  0.000025   -0.01    108.89   
    57. A(C   2,C   6,C   5)          108.27 -0.000051    0.01    108.28   
    58. A(C   1,C   6,C   5)          119.38 -0.000019    0.01    119.39   
    59. A(C   5,C   6,H  18)          115.82  0.000015   -0.00    115.82   
    60. A(C   2,C   6,H  18)          121.12  0.000028    0.00    121.12   
    61. A(C   1,C   6,H  18)          119.80  0.000011   -0.01    119.80   
    62. A(C   1,C   6,C   2)           59.90  0.000006   -0.00     59.90   
    63. D(C   6,C   1,C   0,H   7)    -95.38 -0.000007    0.09    -95.29   
    64. D(H  10,C   1,C   0,H   9)    165.19 -0.000071    0.15    165.34   
    65. D(C   2,C   1,C   0,H   8)     69.47  0.000006    0.07     69.55   
    66. D(C   6,C   1,C   0,H   8)    146.00 -0.000029    0.10    146.10   
    67. D(H  10,C   1,C   0,H   8)    -72.16 -0.000038    0.13    -72.03   
    68. D(C   2,C   1,C   0,H   9)    -53.18 -0.000026    0.09    -53.09   
    69. D(H  10,C   1,C   0,H   7)     46.46 -0.000017    0.12     46.58   
    70. D(C   2,C   1,C   0,H   7)   -171.90  0.000027    0.06   -171.84   
    71. D(C   6,C   1,C   0,H   9)     23.34 -0.000061    0.12     23.46   
    72. D(C   6,C   2,C   1,C   0)    114.39 -0.000093    0.06    114.45   
    73. D(C   6,C   2,C   1,H  10)   -103.80 -0.000026    0.00   -103.80   
    74. D(H  11,C   2,C   1,C   0)   -134.79 -0.000085    0.07   -134.71   
    75. D(C   3,C   2,C   1,C   0)     19.19 -0.000053    0.04     19.23   
    76. D(C   3,C   2,C   1,C   6)    -95.19  0.000041   -0.02    -95.21   
    77. D(H  11,C   2,C   1,H  10)      7.03 -0.000017    0.02      7.05   
    78. D(H  11,C   2,C   1,C   6)    110.83  0.000009    0.01    110.84   
    79. D(C   3,C   2,C   1,H  10)    161.01  0.000015   -0.02    160.99   
    80. D(H  13,C   3,C   2,H  11)     87.95 -0.000008   -0.01     87.94   
    81. D(H  13,C   3,C   2,C   6)   -132.24  0.000011    0.01   -132.23   
    82. D(H  13,C   3,C   2,C   1)    -66.89 -0.000068    0.03    -66.86   
    83. D(H  12,C   3,C   2,H  11)    -36.87  0.000013   -0.03    -36.90   
    84. D(H  12,C   3,C   2,C   6)    102.94  0.000033   -0.00    102.94   
    85. D(N   4,C   3,C   2,H  11)   -153.30 -0.000022   -0.02   -153.32   
    86. D(N   4,C   3,C   2,C   6)    -13.49 -0.000003    0.01    -13.48   
    87. D(N   4,C   3,C   2,C   1)     51.86 -0.000082    0.02     51.88   
    88. D(H  12,C   3,C   2,C   1)    168.29 -0.000046    0.01    168.30   
    89. D(C   5,N   4,C   3,H  12)    -97.09  0.000006    0.01    -97.08   
    90. D(C   5,N   4,C   3,C   2)     21.52 -0.000023    0.01     21.54   
    91. D(H  14,N   4,C   3,C   2)    144.82 -0.000024    0.02    144.83   
    92. D(C   5,N   4,C   3,H  13)    145.33 -0.000018    0.02    145.35   
    93. D(H  14,N   4,C   3,H  12)     26.20  0.000005    0.01     26.22   
    94. D(H  15,N   4,C   3,H  13)     26.29 -0.000058    0.04     26.33   
    95. D(H  15,N   4,C   3,H  12)    143.87 -0.000034    0.03    143.90   
    96. D(H  15,N   4,C   3,C   2)    -97.51 -0.000064    0.03    -97.48   
    97. D(H  14,N   4,C   3,H  13)    -91.38 -0.000018    0.02    -91.36   
    98. D(H  17,C   5,N   4,H  15)   -143.76 -0.000052    0.01   -143.74   
    99. D(H  17,C   5,N   4,C   3)     97.44  0.000010   -0.00     97.44   
   100. D(H  16,C   5,N   4,H  15)    -26.25 -0.000031    0.00    -26.25   
   101. D(H  16,C   5,N   4,H  14)     91.59 -0.000006   -0.00     91.59   
   102. D(H  16,C   5,N   4,C   3)   -145.05  0.000032   -0.01   -145.06   
   103. D(C   6,C   5,N   4,H  15)     97.64 -0.000027   -0.01     97.63   
   104. D(H  17,C   5,N   4,H  14)    -25.91 -0.000027    0.00    -25.91   
   105. D(C   6,C   5,N   4,H  14)   -144.52 -0.000002   -0.02   -144.54   
   106. D(C   6,C   5,N   4,C   3)    -21.16  0.000036   -0.03    -21.19   
   107. D(C   1,C   6,C   5,H  16)     66.10  0.000016    0.01     66.11   
   108. D(C   1,C   6,C   5,N   4)    -52.73 -0.000023    0.03    -52.70   
   109. D(H  18,C   6,C   2,H  11)      0.71 -0.000005   -0.00      0.71   
   110. D(H  18,C   6,C   2,C   1)    108.73  0.000005   -0.01    108.72   
   111. D(C   5,C   6,C   2,H  11)    138.04 -0.000014    0.01    138.04   
   112. D(C   5,C   6,C   2,C   3)      0.68  0.000021   -0.03      0.65   
   113. D(C   5,C   6,C   2,C   1)   -113.94 -0.000004   -0.00   -113.95   
   114. D(C   1,C   6,C   2,H  11)   -108.02 -0.000010    0.01   -108.01   
   115. D(C   1,C   6,C   2,C   3)    114.62  0.000025   -0.02    114.60   
   116. D(H  18,C   6,C   1,H  10)     -7.96  0.000008   -0.02     -7.98   
   117. D(H  18,C   6,C   1,C   2)   -110.88 -0.000031   -0.00   -110.88   
   118. D(H  18,C   6,C   1,C   0)    133.91  0.000024   -0.00    133.91   
   119. D(C   5,C   6,C   1,H  10)   -161.94 -0.000013   -0.02   -161.96   
   120. D(H  18,C   6,C   2,C   3)   -136.65  0.000030   -0.03   -136.68   
   121. D(C   5,C   6,C   1,C   2)     95.14 -0.000052    0.00     95.14   
   122. D(C   5,C   6,C   1,C   0)    -20.07  0.000003    0.00    -20.07   
   123. D(C   2,C   6,C   1,H  10)    102.93  0.000039   -0.02    102.91   
   124. D(C   1,C   6,C   5,H  17)   -169.10  0.000028    0.01   -169.09   
   125. D(C   2,C   6,C   1,C   0)   -115.21  0.000055    0.00   -115.21   
   126. D(H  18,C   6,C   5,H  17)     35.92  0.000008    0.01     35.93   
   127. D(H  18,C   6,C   5,H  16)    -88.88 -0.000004    0.02    -88.87   
   128. D(H  18,C   6,C   5,N   4)    152.28 -0.000042    0.04    152.32   
   129. D(C   2,C   6,C   5,H  17)   -103.95  0.000008    0.01   -103.94   
   130. D(C   2,C   6,C   5,H  16)    131.25 -0.000004    0.01    131.26   
   131. D(C   2,C   6,C   5,N   4)     12.42 -0.000042    0.03     12.45   
    ----------------------------------------------------------------------------

         *************************************************************
         *                GEOMETRY OPTIMIZATION CYCLE   2            *
         *************************************************************
---------------------------------
CARTESIAN COORDINATES (ANGSTROEM)
---------------------------------
  C      1.819489   -0.000645   -0.993370
  C      0.351482   -0.007514   -1.329142
  C     -0.722415   -0.753145   -0.590515
  C     -0.481333   -1.225902    0.812350
  N     -0.000152    0.000418    1.556672
  C     -0.455180    1.231359    0.799910
  C     -0.716615    0.753649   -0.598971
  H      2.335683    0.737998   -1.608925
  H      2.274528   -0.971703   -1.199123
  H      2.061747    0.264044    0.040751
  H      0.179280   -0.022048   -2.400575
  H     -1.460967   -1.309031   -1.153448
  H     -1.407228   -1.561331    1.279742
  H      0.273653   -2.005596    0.924787
  H     -0.332584    0.009448    2.520279
  H      1.017505   -0.013804    1.597438
  H      0.319554    1.993136    0.901483
  H     -1.369809    1.593456    1.269301
  H     -1.455913    1.312768   -1.157635

----------------------------
CARTESIAN COORDINATES (A.U.)
----------------------------
  NO LB      ZA    FRAG    MASS        X           Y           Z
   0 C     6.0000    0    12.011          3.438336451573337         -0.001219696942191         -1.877197238417665
   1 C     6.0000    0    12.011          0.664205526463062         -0.014199217786161         -2.511713543122052
   2 C     6.0000    0    12.011         -1.365166359146343         -1.423238167081578         -1.115911156653399
   3 C     6.0000    0    12.011         -0.909587174920925         -2.316618685495484          1.535118610522569
   4 N     7.0000    0    14.007         -0.000286735451688          0.000789725733593          2.941683676659505
   5 C     6.0000    0    12.011         -0.860164628283521          2.326931072624010          1.511611056323642
   6 C     6.0000    0    12.011         -1.354206106354230          1.424189446082686         -1.131890817652549
   7 H     1.0000    0     1.008          4.413802136537343          1.394614309132789         -3.040428175930265
   8 H     1.0000    0     1.008          4.298235328105752         -1.836251650362825         -2.266013741394059
   9 H     1.0000    0     1.008          3.896138051570438          0.498970850161650          0.077008632970546
  10 H     1.0000    0     1.008          0.338790056028849         -0.041664781901017         -4.536429464170248
  11 H     1.0000    0     1.008         -2.760827106806339         -2.473709761562378         -2.179699971869369
  12 H     1.0000    0     1.008         -2.659276405019631         -2.950487947395970          2.418362834178136
  13 H     1.0000    0     1.008          0.517129390532553         -3.790026744088395          1.747594836199278
  14 H     1.0000    0     1.008         -0.628492733820616          0.017853910164054          4.762637300610318
  15 H     1.0000    0     1.008          1.922804958436663         -0.026086430256583          3.018720879839639
  16 H     1.0000    0     1.008          0.603869527069580          3.766480918038645          1.703555628333368
  17 H     1.0000    0     1.008         -2.588563426950158          3.011196314397619          2.398631967465976
  18 H     1.0000    0     1.008         -2.751276945897322          2.480772225089084         -2.187612892398296

--------------------------------
INTERNAL COORDINATES (ANGSTROEM)
--------------------------------
 C      0   0   0   0.000000     0.000     0.000
 C      1   0   0   1.505933     0.000     0.000
 C      2   1   0   1.501596   126.139     0.000
 C      3   2   1   1.499883   120.108    19.233
 N      4   3   2   1.513080   104.819    51.884
 C      5   4   3   1.514911   108.500    21.537
 C      2   1   3   1.501116   125.651    76.552
 H      1   2   3   1.091311   109.780   188.159
 H      1   2   3   1.091946   111.110    69.546
 H      1   2   3   1.094603   115.309   306.912
 H      2   1   3   1.085281   112.015   218.423
 H      3   2   1   1.082294   119.158   225.287
 H      4   3   2   1.090069   111.193   168.304
 H      4   3   2   1.091132   115.647   293.139
 H      5   4   3   1.019378   111.622   144.834
 H      5   4   3   1.018572   109.032   262.517
 H      6   5   4   1.091253   107.907   214.935
 H      6   5   4   1.089949   107.870    97.440
 H      7   2   1   1.082258   119.797   133.906

---------------------------
INTERNAL COORDINATES (A.U.)
---------------------------
 C      0   0   0   0.000000     0.000     0.000
 C      1   0   0   2.845801     0.000     0.000
 C      2   1   0   2.837606   126.139     0.000
 C      3   2   1   2.834368   120.108    19.233
 N      4   3   2   2.859307   104.819    51.884
 C      5   4   3   2.862766   108.500    21.537
 C      2   1   3   2.836698   125.651    76.552
 H      1   2   3   2.062278   109.780   188.159
 H      1   2   3   2.063479   111.110    69.546
 H      1   2   3   2.068500   115.309   306.912
 H      2   1   3   2.050884   112.015   218.423
 H      3   2   1   2.045240   119.158   225.287
 H      4   3   2   2.059933   111.193   168.304
 H      4   3   2   2.061940   115.647   293.139
 H      5   4   3   1.926345   111.622   144.834
 H      5   4   3   1.924822   109.032   262.517
 H      6   5   4   2.062169   107.907   214.935
 H      6   5   4   2.059706   107.870    97.440
 H      7   2   1   2.045171   119.797   133.906



           ************************************************************
           *        Program running with 8 parallel MPI-processes     *
           *              working on a common directory               *
           ************************************************************
           ************************************************************
           *              Shut down parallel processing               *
           ************************************************************


           ************************************************************
           *        Program running with 8 parallel MPI-processes     *
           *              working on a common directory               *
           ************************************************************

Diagonalization of the overlap matrix:
Smallest eigenvalue                        ... 1.003e-04
Time for diagonalization                   ...    0.100 sec
Threshold for overlap eigenvalues          ... 1.000e-08
Number of eigenvalues below threshold      ... 0
Time for construction of square roots      ...    0.019 sec
Total time needed                          ...    0.119 sec

-------------------
DFT GRID GENERATION
-------------------

General Integration Accuracy     IntAcc      ...  4.340
Radial Grid Type                 RadialGrid  ... Gauss-Chebyshev
Angular Grid (max. acc.)         AngularGrid ... Lebedev-194
Angular grid pruning method      GridPruning ... 3 (G Style)
Weight generation scheme         WeightScheme... Becke
Basis function cutoff            BFCut       ...    1.0000e-11
Integration weight cutoff        WCut        ...    1.0000e-14
Grids for H and He will be reduced by one unit

# of grid points (after initial pruning)     ...  41338 (   0.0 sec)
# of grid points (after weights+screening)   ...  37313 (   0.2 sec)
nearest neighbour list constructed           ...    0.0 sec
Grid point re-assignment to atoms done       ...    0.0 sec
Grid point division into batches done        ...    0.1 sec
Reduced shell lists constructed in    0.1 sec

Total number of grid points                  ...    37313
Total number of batches                      ...      594
Average number of points per batch           ...       62
Average number of grid points per atom       ...     1964
Average number of shells per batch           ...   104.45 (83.56%)
Average number of basis functions per batch  ...   254.97 (88.23%)
Average number of large shells per batch     ...    86.72 (83.03%)
Average number of large basis fcns per batch ...   210.28 (82.47%)
Maximum spatial batch extension              ...   2.33,  3.79,  2.68 au
Average spatial batch extension              ...   0.16,  0.16,  0.16 au

Time for grid setup =    0.942 sec

--------------
SCF ITERATIONS
--------------
ITER       Energy         Delta-E        Max-DP      RMS-DP      [F,P]     Damp
               ***  Starting incremental Fock matrix formation  ***
                      *** Initiating the SOSCF procedure ***
                      *** Re-Reading the Fockian *** 
                      *** Removing any level shift *** 
ITER      Energy       Delta-E        Grad      Rot      Max-DP    RMS-DP
  0   -290.10485266 -290.1048526599  0.000108  0.000108  0.000274  0.000006
               *** Restarting incremental Fock matrix formation ***
  1   -290.10485399  -0.0000013317  0.000032  0.000057  0.000115  0.000003
  2   -290.10485411  -0.0000001210  0.000007  0.000014  0.000026  0.000001
  3   -290.10485411   0.0000000001  0.000010  0.000006  0.000016  0.000000
                  ***Gradient check signals convergence***
              ***Rediagonalizing the Fockian in SOSCF/NRSCF***

               *****************************************************
               *                     SUCCESS                       *
               *           SCF CONVERGED AFTER   4 CYCLES          *
               *****************************************************

Setting up the final grid:

General Integration Accuracy     IntAcc      ...  5.010
Radial Grid Type                 RadialGrid  ... Gauss-Chebyshev
Angular Grid (max. acc.)         AngularGrid ... Lebedev-434
Angular grid pruning method      GridPruning ... 3 (G Style)
Weight generation scheme         WeightScheme... Becke
Basis function cutoff            BFCut       ...    1.0000e-11
Integration weight cutoff        WCut        ...    1.0000e-14
Grids for H and He will be reduced by one unit

# of grid points (after initial pruning)     ... 155082 (   0.0 sec)
# of grid points (after weights+screening)   ... 138146 (   6.1 sec)
nearest neighbour list constructed           ...    0.0 sec
Grid point re-assignment to atoms done       ...    0.0 sec
Grid point division into batches done        ...    0.8 sec
Reduced shell lists constructed in    1.1 sec

Total number of grid points                  ...   138146
Total number of batches                      ...     2167
Average number of points per batch           ...       63
Average number of grid points per atom       ...     7271
Average number of shells per batch           ...   103.16 (82.53%)
Average number of basis functions per batch  ...   251.86 (87.15%)
Average number of large shells per batch     ...    85.04 (82.44%)
Average number of large basis fcns per batch ...   206.32 (81.92%)
Maximum spatial batch extension              ...   2.06,  2.14,  1.96 au
Average spatial batch extension              ...   0.10,  0.10,  0.10 au

Final grid set up in    8.7 sec
Final integration                            ... done (   1.8 sec)
Change in XC energy                          ...     0.000448148
Integrated number of electrons               ...    54.000090345
Previous integrated no of electrons          ...    54.000271692
Total Energy       :         -290.10440597 Eh           -7894.14222 eV
  Last Energy change         ...   -4.9814e-09  Tolerance :   1.0000e-08
  Last MAX-Density change    ...    2.5234e-06  Tolerance :   1.0000e-07
             **** THE GBW FILE WAS UPDATED (1640_+.gbw) ****
             **** DENSITY FILE WAS UPDATED (1640_+.scfp.tmp) ****
             **** ENERGY FILE WAS UPDATED (1640_+.en.tmp) ****
Total SCF time: 0 days 0 hours 1 min 11 sec 
           ************************************************************
           *              Shut down parallel processing               *
           ************************************************************

-------------------------   --------------------
FINAL SINGLE POINT ENERGY      -290.104405969357
-------------------------   --------------------



           ************************************************************
           *        Program running with 8 parallel MPI-processes     *
           *              working on a common directory               *
           ************************************************************
------------------------------------------------------------------------------
                         ORCA SCF GRADIENT CALCULATION
------------------------------------------------------------------------------

Gradient of the Kohn-Sham DFT energy:
Kohn-Sham wavefunction type      ... RKS
Hartree-Fock exchange scaling    ...    0.250
Number of operators              ...    1
Number of atoms                  ...   19
Basis set dimensions             ...  289
Integral neglect threshold       ... 2.5e-11
Integral primitive cutoff        ... 2.5e-12

Nuclear repulsion gradient       ... done
One Electron Gradient            ... done
Pre-screening matrix             ... done
Starting the two electron gradient:
Two electron gradient done
Exchange-correlation gradient    ... done

------------------
CARTESIAN GRADIENT
------------------

   1   C   :   -0.000054730   -0.000118565    0.000070189
   2   C   :   -0.000098317    0.000060904   -0.000148763
   3   C   :    0.000110298   -0.000132251    0.000057907
   4   C   :   -0.000008673    0.000059851    0.000024686
   5   N   :   -0.000032994    0.000011514   -0.000002422
   6   C   :    0.000040794    0.000027147   -0.000003315
   7   C   :    0.000088980    0.000077163   -0.000004651
   8   H   :    0.000064784   -0.000039157    0.000001216
   9   H   :    0.000042235    0.000017125   -0.000016064
  10   H   :   -0.000081874    0.000120315   -0.000013284
  11   H   :   -0.000013357    0.000035910    0.000009753
  12   H   :   -0.000024107    0.000000474    0.000031556
  13   H   :   -0.000000550   -0.000015611   -0.000025923
  14   H   :    0.000009782   -0.000010116   -0.000019743
  15   H   :    0.000006018    0.000036218    0.000000731
  16   H   :   -0.000006003   -0.000082199    0.000023176
  17   H   :    0.000000912   -0.000007210   -0.000009205
  18   H   :   -0.000016393   -0.000037264   -0.000002861
  19   H   :   -0.000026806   -0.000004245    0.000027019

Norm of the cartesian gradient     ...    0.000397879
RMS gradient                       ...    0.000052700
MAX gradient                       ...    0.000148763

-------
TIMINGS
-------

Total SCF gradient time            ...       58.048 sec

One electron gradient       ....       0.284 sec  (  0.5%)
Prescreening matrices       ....       0.930 sec  (  1.6%)
Two electron gradient       ....      48.730 sec  ( 83.9%)
XC gradient                 ....       6.919 sec  ( 11.9%)
           ************************************************************
           *              Shut down parallel processing               *
           ************************************************************
------------------------------------------------------------------------------
                         ORCA GEOMETRY RELAXATION STEP
------------------------------------------------------------------------------

Reading the OPT-File                    .... done
Getting information on internals        .... done
Copying old internal coords+grads       .... done
Making the new internal coordinates     .... (new redundants).... done
Validating the new internal coordinates .... (new redundants).... done
Calculating the B-matrix                .... done
Calculating the G,G- and P matrices     .... done
Transforming gradient to internals      .... done
Projecting the internal gradient        .... done
Number of atoms                         ....  19
Number of internal coordinates          .... 131
Current Energy                          ....  -290.104405969 Eh
Current gradient norm                   ....     0.000397879 Eh/bohr
Maximum allowed component of the step   ....  0.300
Current trust radius                    ....  0.300
Updating the Hessian (BFGS)             .... done
Forming the augmented Hessian           .... done
Diagonalizing the augmented Hessian     .... done
Last element of RFO vector              ....  0.999822627
Lowest eigenvalues of augmented Hessian:
 -0.000003443  0.007428824  0.012918821  0.020645534  0.033554657
Length of the computed step             ....  0.018837198
The final length of the internal step   ....  0.018837198
Converting the step to cartesian space:
 Initial RMS(Int)=    0.0016458137
Transforming coordinates:
 Iter   0:  RMS(Cart)=    0.0032285212 RMS(Int)=    0.0016458092
 Iter   1:  RMS(Cart)=    0.0000088885 RMS(Int)=    0.0000057308
 Iter   2:  RMS(Cart)=    0.0000000560 RMS(Int)=    0.0000000333
done
Storing new coordinates                 .... done

                                .--------------------.
          ----------------------|Geometry convergence|---------------------
          Item                value                 Tolerance   Converged
          -----------------------------------------------------------------
          Energy change      -0.00000203            0.00000100      NO
          RMS gradient        0.00003133            0.00003000      NO
          MAX gradient        0.00015531            0.00010000      NO
          RMS step            0.00164581            0.00060000      NO
          MAX step            0.00706949            0.00100000      NO
          ....................................................
          Max(Bonds)      0.0003      Max(Angles)    0.11
          Max(Dihed)        0.41      Max(Improp)    0.00
          -----------------------------------------------------------------

The optimization has not yet converged - more geometry cycles are needed


    ---------------------------------------------------------------------------
                         Redundant Internal Coordinates
                            (Angstroem and degrees)

        Definition                    Value    dE/dq     Step     New-Value
    ----------------------------------------------------------------------------
     1. B(C   1,C   0)                1.5059 -0.000017  0.0002    1.5061   
     2. B(C   2,C   1)                1.5016 -0.000002 -0.0001    1.5015   
     3. B(C   3,C   2)                1.4999 -0.000034  0.0002    1.5000   
     4. B(N   4,C   3)                1.5131 -0.000021  0.0002    1.5133   
     5. B(C   5,N   4)                1.5149  0.000023 -0.0001    1.5148   
     6. B(C   6,C   2)                1.5068  0.000069 -0.0003    1.5065   
     7. B(C   6,C   1)                1.5011 -0.000045  0.0003    1.5014   
     8. B(C   6,C   5)                1.5011 -0.000000  0.0000    1.5012   
     9. B(H   7,C   0)                1.0913  0.000003 -0.0001    1.0912   
    10. B(H   8,C   0)                1.0919  0.000005 -0.0001    1.0918   
    11. B(H   9,C   0)                1.0946 -0.000001 -0.0001    1.0945   
    12. B(H  10,C   1)                1.0853 -0.000008  0.0001    1.0854   
    13. B(H  11,C   2)                1.0823 -0.000000 -0.0000    1.0822   
    14. B(H  12,C   3)                1.0901 -0.000006  0.0001    1.0902   
    15. B(H  13,C   3)                1.0911  0.000012 -0.0002    1.0909   
    16. B(H  14,N   4)                1.0194 -0.000001  0.0000    1.0194   
    17. B(H  15,N   4)                1.0186 -0.000005 -0.0002    1.0184   
    18. B(H  16,C   5)                1.0913 -0.000006  0.0001    1.0913   
    19. B(H  17,C   5)                1.0899  0.000000  0.0000    1.0900   
    20. B(H  18,C   6)                1.0823  0.000002 -0.0001    1.0822   
    21. A(H   8,C   0,H   9)          107.51  0.000065   -0.07    107.44   
    22. A(C   1,C   0,H   9)          115.31 -0.000155    0.09    115.40   
    23. A(C   1,C   0,H   7)          109.78  0.000093   -0.04    109.74   
    24. A(C   1,C   0,H   8)          111.11  0.000081   -0.06    111.05   
    25. A(H   7,C   0,H   9)          105.34 -0.000010    0.04    105.38   
    26. A(H   7,C   0,H   8)          107.37 -0.000077    0.04    107.41   
    27. A(C   0,C   1,C   2)          126.14 -0.000065    0.04    126.18   
    28. A(C   6,C   1,H  10)          111.97  0.000013   -0.03    111.94   
    29. A(C   0,C   1,C   6)          125.65 -0.000079    0.11    125.76   
    30. A(C   2,C   1,H  10)          111.44  0.000011   -0.02    111.41   
    31. A(C   0,C   1,H  10)          112.02  0.000062   -0.06    111.95   
    32. A(C   2,C   1,C   6)           60.24  0.000038   -0.02     60.22   
    33. A(C   1,C   2,C   6)           59.86 -0.000032    0.02     59.88   
    34. A(C   6,C   2,H  11)          120.88  0.000024    0.01    120.90   
    35. A(C   3,C   2,H  11)          115.74 -0.000039    0.03    115.77   
    36. A(C   1,C   2,H  11)          119.16  0.000020   -0.02    119.14   
    37. A(C   1,C   2,C   3)          120.11  0.000029   -0.05    120.06   
    38. A(C   3,C   2,C   6)          108.65  0.000006   -0.00    108.65   
    39. A(N   4,C   3,H  13)          107.96 -0.000012   -0.00    107.96   
    40. A(C   2,C   3,H  13)          115.65  0.000003    0.02    115.67   
    41. A(N   4,C   3,H  12)          107.97  0.000027   -0.02    107.95   
    42. A(C   2,C   3,H  12)          111.19 -0.000036    0.02    111.21   
    43. A(C   2,C   3,N   4)          104.82  0.000016   -0.02    104.80   
    44. A(H  12,C   3,H  13)          108.88  0.000005    0.00    108.88   
    45. A(C   5,N   4,H  14)          111.53 -0.000019    0.02    111.55   
    46. A(C   3,N   4,H  14)          111.62  0.000029   -0.02    111.60   
    47. A(C   3,N   4,C   5)          108.50 -0.000001   -0.00    108.50   
    48. A(H  14,N   4,H  15)          106.74 -0.000007    0.01    106.76   
    49. A(C   5,N   4,H  15)          109.36  0.000046   -0.06    109.30   
    50. A(C   3,N   4,H  15)          109.03 -0.000049    0.05    109.08   
    51. A(N   4,C   5,C   6)          105.03  0.000014   -0.02    105.00   
    52. A(C   6,C   5,H  17)          111.16 -0.000008    0.03    111.19   
    53. A(N   4,C   5,H  17)          107.87 -0.000027    0.04    107.91   
    54. A(C   6,C   5,H  16)          115.63 -0.000007   -0.01    115.62   
    55. A(N   4,C   5,H  16)          107.91  0.000010   -0.02    107.89   
    56. A(H  16,C   5,H  17)          108.89  0.000016   -0.02    108.87   
    57. A(C   2,C   6,C   5)          108.28 -0.000028    0.02    108.30   
    58. A(C   1,C   6,C   5)          119.39 -0.000003    0.01    119.39   
    59. A(C   5,C   6,H  18)          115.82  0.000001    0.00    115.83   
    60. A(C   2,C   6,H  18)          121.12  0.000019    0.01    121.13   
    61. A(C   1,C   6,H  18)          119.80  0.000010   -0.02    119.78   
    62. A(C   1,C   6,C   2)           59.90 -0.000006   -0.00     59.89   
    63. D(C   6,C   1,C   0,H   7)    -95.29 -0.000018    0.30    -94.98   
    64. D(H  10,C   1,C   0,H   9)    165.34 -0.000059    0.41    165.74   
    65. D(C   2,C   1,C   0,H   8)     69.55  0.000000    0.25     69.80   
    66. D(C   6,C   1,C   0,H   8)    146.10 -0.000031    0.32    146.42   
    67. D(H  10,C   1,C   0,H   8)    -72.03 -0.000025    0.34    -71.69   
    68. D(C   2,C   1,C   0,H   9)    -53.09 -0.000034    0.32    -52.77   
    69. D(H  10,C   1,C   0,H   7)     46.58 -0.000011    0.33     46.91   
    70. D(C   2,C   1,C   0,H   7)   -171.84  0.000014    0.24   -171.60   
    71. D(C   6,C   1,C   0,H   9)     23.46 -0.000066    0.38     23.85   
    72. D(C   6,C   2,C   1,C   0)    114.45 -0.000061    0.12    114.57   
    73. D(C   6,C   2,C   1,H  10)   -103.80 -0.000020    0.02   -103.77   
    74. D(H  11,C   2,C   1,C   0)   -134.71 -0.000052    0.15   -134.56   
    75. D(C   3,C   2,C   1,C   0)     19.23 -0.000037    0.09     19.32   
    76. D(C   3,C   2,C   1,C   6)    -95.21  0.000024   -0.03    -95.25   
    77. D(H  11,C   2,C   1,H  10)      7.05 -0.000011    0.05      7.10   
    78. D(H  11,C   2,C   1,C   6)    110.84  0.000009    0.03    110.87   
    79. D(C   3,C   2,C   1,H  10)    160.99  0.000004   -0.01    160.98   
    80. D(H  13,C   3,C   2,H  11)     87.94 -0.000005   -0.04     87.90   
    81. D(H  13,C   3,C   2,C   6)   -132.23 -0.000003    0.02   -132.21   
    82. D(H  13,C   3,C   2,C   1)    -66.86 -0.000034    0.03    -66.83   
    83. D(H  12,C   3,C   2,H  11)    -36.90  0.000016   -0.07    -36.97   
    84. D(H  12,C   3,C   2,C   6)    102.94  0.000019   -0.02    102.92   
    85. D(N   4,C   3,C   2,H  11)   -153.32 -0.000008   -0.05   -153.36   
    86. D(N   4,C   3,C   2,C   6)    -13.48 -0.000005    0.01    -13.48   
    87. D(N   4,C   3,C   2,C   1)     51.88 -0.000036    0.03     51.91   
    88. D(H  12,C   3,C   2,C   1)    168.30 -0.000012    0.00    168.31   
    89. D(C   5,N   4,C   3,H  12)    -97.08  0.000007    0.04    -97.04   
    90. D(C   5,N   4,C   3,C   2)     21.54 -0.000013    0.04     21.58   
    91. D(H  14,N   4,C   3,C   2)    144.83 -0.000018    0.05    144.88   
    92. D(C   5,N   4,C   3,H  13)    145.35 -0.000007    0.05    145.40   
    93. D(H  14,N   4,C   3,H  12)     26.22  0.000002    0.04     26.26   
    94. D(H  15,N   4,C   3,H  13)     26.33 -0.000034    0.09     26.41   
    95. D(H  15,N   4,C   3,H  12)    143.90 -0.000020    0.08    143.98   
    96. D(H  15,N   4,C   3,C   2)    -97.48 -0.000040    0.08    -97.40   
    97. D(H  14,N   4,C   3,H  13)    -91.36 -0.000012    0.06    -91.30   
    98. D(H  17,C   5,N   4,H  15)   -143.74 -0.000025    0.00   -143.74   
    99. D(H  17,C   5,N   4,C   3)     97.44  0.000008   -0.03     97.41   
   100. D(H  16,C   5,N   4,H  15)    -26.25 -0.000015   -0.01    -26.26   
   101. D(H  16,C   5,N   4,H  14)     91.59 -0.000006   -0.02     91.57   
   102. D(H  16,C   5,N   4,C   3)   -145.06  0.000018   -0.04   -145.10   
   103. D(C   6,C   5,N   4,H  15)     97.63 -0.000010   -0.04     97.58   
   104. D(H  17,C   5,N   4,H  14)    -25.91 -0.000016   -0.01    -25.92   
   105. D(C   6,C   5,N   4,H  14)   -144.54 -0.000001   -0.05   -144.59   
   106. D(C   6,C   5,N   4,C   3)    -21.19  0.000023   -0.07    -21.26   
   107. D(C   1,C   6,C   5,H  16)     66.11  0.000011    0.02     66.13   
   108. D(C   1,C   6,C   5,N   4)    -52.70 -0.000007    0.07    -52.63   
   109. D(H  18,C   6,C   2,H  11)      0.71  0.000001   -0.02      0.69   
   110. D(H  18,C   6,C   2,C   1)    108.72  0.000002   -0.03    108.69   
   111. D(C   5,C   6,C   2,H  11)    138.04 -0.000009    0.02    138.06   
   112. D(C   5,C   6,C   2,C   3)      0.65  0.000018   -0.05      0.60   
   113. D(C   5,C   6,C   2,C   1)   -113.95 -0.000009    0.00   -113.94   
   114. D(C   1,C   6,C   2,H  11)   -108.01 -0.000000    0.02   -108.00   
   115. D(C   1,C   6,C   2,C   3)    114.60  0.000027   -0.05    114.55   
   116. D(H  18,C   6,C   1,H  10)     -7.98 -0.000000   -0.04     -8.02   
   117. D(H  18,C   6,C   1,C   2)   -110.88 -0.000017   -0.01   -110.90   
   118. D(H  18,C   6,C   1,C   0)    133.91  0.000022   -0.02    133.88   
   119. D(C   5,C   6,C   1,H  10)   -161.96 -0.000019   -0.01   -161.96   
   120. D(H  18,C   6,C   2,C   3)   -136.68  0.000029   -0.08   -136.77   
   121. D(C   5,C   6,C   1,C   2)     95.14 -0.000036    0.02     95.15   
   122. D(C   5,C   6,C   1,C   0)    -20.07  0.000003    0.00    -20.06   
   123. D(C   2,C   6,C   1,H  10)    102.91  0.000017   -0.02    102.88   
   124. D(C   1,C   6,C   5,H  17)   -169.09  0.000021    0.02   -169.08   
   125. D(C   2,C   6,C   1,C   0)   -115.21  0.000039   -0.01   -115.22   
   126. D(H  18,C   6,C   5,H  17)     35.93  0.000000    0.05     35.98   
   127. D(H  18,C   6,C   5,H  16)    -88.87 -0.000009    0.06    -88.81   
   128. D(H  18,C   6,C   5,N   4)    152.32 -0.000028    0.10    152.43   
   129. D(C   2,C   6,C   5,H  17)   -103.94  0.000001    0.02   -103.92   
   130. D(C   2,C   6,C   5,H  16)    131.26 -0.000009    0.03    131.29   
   131. D(C   2,C   6,C   5,N   4)     12.45 -0.000027    0.07     12.53   
    ----------------------------------------------------------------------------

         *************************************************************
         *                GEOMETRY OPTIMIZATION CYCLE   3            *
         *************************************************************
---------------------------------
CARTESIAN COORDINATES (ANGSTROEM)
---------------------------------
  C      1.820352   -0.001915   -0.993638
  C      0.351901   -0.007419   -1.328216
  C     -0.722534   -0.752823   -0.590335
  C     -0.481146   -1.225586    0.812648
  N     -0.000328    0.001361    1.556672
  C     -0.456875    1.231819    0.800214
  C     -0.717117    0.753668   -0.598761
  H      2.335076    0.740265   -1.606038
  H      2.274519   -0.971945   -1.205493
  H      2.065106    0.255835    0.041582
  H      0.179906   -0.022056   -2.399793
  H     -1.460235   -1.309047   -1.153953
  H     -1.406844   -1.561103    1.280610
  H      0.274053   -2.004759    0.925338
  H     -0.332151    0.009750    2.520499
  H      1.017220   -0.010929    1.596576
  H      0.317291    1.994263    0.901949
  H     -1.371756    1.593540    1.269458
  H     -1.455710    1.312637   -1.158303

----------------------------
CARTESIAN COORDINATES (A.U.)
----------------------------
  NO LB      ZA    FRAG    MASS        X           Y           Z
   0 C     6.0000    0    12.011          3.439967161844743         -0.003618374280741         -1.877703957529433
   1 C     6.0000    0    12.011          0.664996860484247         -0.014020147545664         -2.509964077069830
   2 C     6.0000    0    12.011         -1.365391483548340         -1.422628665019135         -1.115572133497621
   3 C     6.0000    0    12.011         -0.909234864397906         -2.316021323591626          1.535681489948688
   4 N     7.0000    0    14.007         -0.000619902458602          0.002572227557636          2.941683018577957
   5 C     6.0000    0    12.011         -0.863369112283834          2.327801483156589          1.512184565726955
   6 C     6.0000    0    12.011         -1.355154065227279          1.424225564991216         -1.131494485768835
   7 H     1.0000    0     1.008          4.412654213500218          1.398898909216032         -3.034972686247653
   8 H     1.0000    0     1.008          4.298218255325002         -1.836710626655673         -2.278051943811009
   9 H     1.0000    0     1.008          3.902483965259073          0.483457474595311          0.078578388291155
  10 H     1.0000    0     1.008          0.339972671778984         -0.041678980071694         -4.534951659792656
  11 H     1.0000    0     1.008         -2.759443908319892         -2.473741014953039         -2.180655397575507
  12 H     1.0000    0     1.008         -2.658549528625342         -2.950057371225718          2.420001368997954
  13 H     1.0000    0     1.008          0.517884257189358         -3.788445606836822          1.748634959593387
  14 H     1.0000    0     1.008         -0.627674577506826          0.018424505034060          4.763052106551105
  15 H     1.0000    0     1.008          1.922267083274632         -0.020652576738766          3.017090590961732
  16 H     1.0000    0     1.008          0.599593615613266          3.768611809118228          1.704436431039215
  17 H     1.0000    0     1.008         -2.592242916680805          3.011354076617421          2.398927999951092
  18 H     1.0000    0     1.008         -2.750893921553898          2.480524325183937         -2.188876156851621

--------------------------------
INTERNAL COORDINATES (ANGSTROEM)
--------------------------------
 C      0   0   0   0.000000     0.000     0.000
 C      1   0   0   1.506095     0.000     0.000
 C      2   1   0   1.501501   126.181     0.000
 C      3   2   1   1.500045   120.062    19.320
 N      4   3   2   1.513326   104.800    51.910
 C      5   4   3   1.514824   108.499    21.578
 C      6   5   4   1.501161   105.005   338.739
 H      1   2   3   1.091241   109.738   188.398
 H      1   2   3   1.091838   111.052    69.800
 H      1   2   3   1.094541   115.404   307.230
 H      2   1   3   1.085391   111.955   218.510
 H      3   2   1   1.082245   119.142   225.436
 H      4   3   2   1.090172   111.213   168.306
 H      4   3   2   1.090933   115.665   293.174
 H      5   4   3   1.019382   111.599   144.884
 H      5   4   3   1.018404   109.083   262.597
 H      6   5   4   1.091332   107.887   214.899
 H      6   5   4   1.089972   107.912    97.415
 H      7   6   5   1.082153   115.827   152.429

---------------------------
INTERNAL COORDINATES (A.U.)
---------------------------
 C      0   0   0   0.000000     0.000     0.000
 C      1   0   0   2.846106     0.000     0.000
 C      2   1   0   2.837426   126.181     0.000
 C      3   2   1   2.834674   120.062    19.320
 N      4   3   2   2.859772   104.800    51.910
 C      5   4   3   2.862603   108.499    21.578
 C      6   5   4   2.836784   105.005   338.739
 H      1   2   3   2.062146   109.738   188.398
 H      1   2   3   2.063274   111.052    69.800
 H      1   2   3   2.068382   115.404   307.230
 H      2   1   3   2.051093   111.955   218.510
 H      3   2   1   2.045146   119.142   225.436
 H      4   3   2   2.060127   111.213   168.306
 H      4   3   2   2.061565   115.665   293.174
 H      5   4   3   1.926353   111.599   144.884
 H      5   4   3   1.924505   109.083   262.597
 H      6   5   4   2.062318   107.887   214.899
 H      6   5   4   2.059748   107.912    97.415
 H      7   6   5   2.044973   115.827   152.429



           ************************************************************
           *        Program running with 8 parallel MPI-processes     *
           *              working on a common directory               *
           ************************************************************
           ************************************************************
           *              Shut down parallel processing               *
           ************************************************************


           ************************************************************
           *        Program running with 8 parallel MPI-processes     *
           *              working on a common directory               *
           ************************************************************

Diagonalization of the overlap matrix:
Smallest eigenvalue                        ... 1.005e-04
Time for diagonalization                   ...    0.790 sec
Threshold for overlap eigenvalues          ... 1.000e-08
Number of eigenvalues below threshold      ... 0
Time for construction of square roots      ...    0.054 sec
Total time needed                          ...    0.844 sec

-------------------
DFT GRID GENERATION
-------------------

General Integration Accuracy     IntAcc      ...  4.340
Radial Grid Type                 RadialGrid  ... Gauss-Chebyshev
Angular Grid (max. acc.)         AngularGrid ... Lebedev-194
Angular grid pruning method      GridPruning ... 3 (G Style)
Weight generation scheme         WeightScheme... Becke
[...]
     36      -0.000356   0.012397   0.061703  -0.034340   0.106276   0.105686
     37       0.027969   0.008620  -0.066174   0.074819  -0.118858  -0.083644
     38      -0.146329  -0.010504  -0.038850   0.039755   0.016808  -0.052072
     39       0.226787   0.009806   0.015661  -0.080603   0.199230   0.223210
     40      -0.206908   0.000213  -0.007146   0.109014  -0.208524  -0.200243
     41      -0.222434  -0.042883  -0.021608   0.070402  -0.165285  -0.143506
     42       0.065870   0.139326  -0.003157   0.189914  -0.012226   0.002092
     43       0.000772   0.019577   0.004232   0.062306  -0.017261  -0.001897
     44      -0.005608   0.024084  -0.074695  -0.061948  -0.140181   0.044169
     45      -0.029555   0.122122  -0.007711   0.074692   0.170597  -0.001366
     46      -0.000228   0.004609  -0.002710   0.046001   0.015360  -0.005711
     47      -0.036003   0.029557   0.233655   0.650305   0.784674  -0.416858
     48      -0.001732   0.135037   0.160599   0.069635  -0.063718   0.027920
     49       0.154872  -0.176819  -0.513563  -0.026330   0.143513  -0.103547
     50       0.179795  -0.253362  -0.643758  -0.081814   0.203385  -0.165404
     51       0.072286   0.074443  -0.029810   0.004834   0.018707  -0.035311
     52       0.057185   0.113001   0.151365   0.175870  -0.055318   0.092449
     53       0.089700   0.161212   0.234415   0.198797  -0.081926   0.120639
     54      -0.161793  -0.056881   0.021359   0.029244  -0.011678   0.031154
     55      -0.250884  -0.055485   0.000096   0.075434   0.042003   0.136424
     56      -0.032144  -0.032014   0.020437  -0.006478   0.015897   0.049988
                 42         43         44         45         46         47    
      0      -0.013398  -0.016331  -0.101868   0.004431  -0.039450   0.181069
      1      -0.015245   0.016473   0.025500  -0.018727   0.001313  -0.098955
      2       0.041698   0.000872   0.028206   0.036692   0.022162  -0.074310
      3      -0.008316   0.043237   0.081267  -0.026420  -0.038678  -0.036897
      4      -0.003310  -0.012885  -0.062380   0.026970   0.016603   0.012008
      5       0.030249  -0.029896  -0.039335   0.018927   0.008702   0.016692
      6       0.023587  -0.053483   0.021403  -0.012175  -0.017712  -0.027983
      7      -0.002718   0.016377  -0.028834   0.015917   0.017852   0.021637
      8       0.014460   0.001101  -0.022216   0.008665   0.003603   0.014201
      9       0.048939  -0.046835  -0.010434   0.012277  -0.000429   0.007521
     10      -0.008142  -0.009670   0.004693  -0.014595   0.002600  -0.000660
     11      -0.027787  -0.034547  -0.003244  -0.030471   0.002259  -0.000151
     12      -0.007321  -0.042920   0.013162  -0.034815   0.030739   0.009087
     13      -0.015435   0.016725  -0.007248  -0.017969  -0.012620   0.004845
     14      -0.103965   0.036175  -0.018686  -0.040117  -0.000956  -0.028668
     15      -0.017983   0.015671  -0.012671   0.041102   0.048979  -0.052579
     16       0.007691  -0.000248   0.018670  -0.007710  -0.005252   0.031638
     17       0.014506  -0.003342   0.013377  -0.005330  -0.011538   0.027333
     18      -0.008131   0.027944   0.013252   0.025929   0.019248  -0.060972
     19       0.008017  -0.008483  -0.011287   0.001563   0.002878   0.032247
     20       0.025333  -0.020870  -0.015852   0.002293  -0.005562   0.022603
     21      -0.062735  -0.005444   0.026697  -0.243274  -0.208170  -0.086165
     22       0.018910   0.024987  -0.022244   0.171048   0.145719   0.007121
     23      -0.006514  -0.012822   0.002864  -0.087484  -0.109865   0.005065
     24       0.003738  -0.021629  -0.022693  -0.153783   0.536345  -0.464514
     25      -0.023497   0.017139  -0.017881   0.067267  -0.279947   0.206900
     26       0.002856  -0.001272  -0.006333   0.021230  -0.108515   0.082046
     27       0.005679  -0.028431  -0.092340   0.054067   0.054242   0.013024
     28      -0.008189   0.004611   0.016739  -0.009540  -0.013598  -0.007617
     29       0.035027   0.002887   0.009702   0.022757  -0.091221   0.052158
     30      -0.053552   0.115739   0.020715   0.061111   0.035609   0.073449
     31      -0.060320   0.094431   0.030380   0.025991   0.036413  -0.106798
     32       0.063119  -0.102927  -0.051378  -0.049310  -0.045272   0.003361
     33       0.045484  -0.019983   0.032922   0.087614   0.304217   0.474504
     34       0.002001  -0.028687  -0.041963  -0.076915  -0.229432  -0.310415
     35      -0.004869  -0.084786  -0.054651  -0.081506  -0.203383  -0.304709
     36      -0.186972   0.143847  -0.092308  -0.088668  -0.024307   0.056767
     37       0.172062  -0.114355   0.059057   0.094491   0.019734  -0.053992
     38      -0.169801   0.274146  -0.047588   0.424803   0.132369  -0.084378
     39      -0.393749   0.393024  -0.115375  -0.020302  -0.026406   0.054377
     40       0.367253  -0.380903   0.098847   0.036150   0.023706  -0.035787
     41       0.092516   0.112154   0.045032   0.386710   0.165109   0.067871
     42       0.651202   0.584299   0.094455  -0.073011  -0.085786  -0.000223
     43       0.083454   0.106714  -0.000847  -0.058002  -0.014996   0.010783
     44       0.273854   0.376953  -0.059775  -0.221289  -0.119193   0.052330
     45      -0.089776  -0.073327   0.264619   0.588123  -0.463787  -0.204364
     46      -0.030620  -0.018471   0.022855   0.032892  -0.040943  -0.006545
     47       0.104695  -0.010074  -0.072254  -0.077439   0.055451   0.020102
     48      -0.041291  -0.064496  -0.084441  -0.144760  -0.055833  -0.062470
     49      -0.024219   0.018233   0.163286  -0.052081  -0.006623   0.076092
     50       0.004607  -0.002865   0.235323  -0.046283   0.007332   0.113005
     51      -0.050139  -0.112824  -0.099972  -0.145309  -0.168824  -0.112835
     52      -0.125280   0.012423   0.452796  -0.084449   0.066258   0.191697
     53      -0.148721  -0.013425   0.720576  -0.124958   0.087886   0.302259
     54      -0.020452   0.040679  -0.007334   0.024055   0.009692   0.011119
     55       0.006260   0.012837  -0.021177   0.062106   0.040178  -0.013913
     56       0.024705  -0.007789   0.003613   0.023507   0.008724   0.013363
                 48         49         50         51         52         53    
      0       0.127518   0.038394  -0.033186   0.007841  -0.023960   0.009758
      1      -0.054683  -0.015602   0.018154   0.002031   0.010231   0.003747
      2      -0.055063   0.006778   0.001807  -0.006091   0.001635   0.004325
      3      -0.012564   0.049858  -0.016176  -0.029695  -0.047394   0.050682
      4       0.008547  -0.017746   0.007486   0.016145   0.025782  -0.020752
      5       0.014266  -0.008697  -0.004321   0.015207   0.003831  -0.014904
      6       0.003064   0.025156   0.022354   0.006463   0.022104   0.006472
      7      -0.002340  -0.010104  -0.005450  -0.001272  -0.000880  -0.013429
      8       0.005873   0.000093  -0.015768   0.001200  -0.017615  -0.008879
      9       0.017639   0.022165   0.017950   0.013357   0.046086  -0.016217
     10      -0.015873  -0.017280  -0.006488  -0.008754  -0.017027  -0.006260
     11      -0.025488  -0.008831   0.002346  -0.004923  -0.024937  -0.002777
     12      -0.052294  -0.011668   0.000708  -0.014970   0.024031  -0.042595
     13       0.005935  -0.010221  -0.010092   0.004489  -0.019879   0.006882
     14      -0.042138  -0.025755  -0.028328  -0.003757  -0.058004  -0.007006
     15      -0.089123  -0.014363   0.013046  -0.038113   0.006053  -0.020645
     16       0.031051   0.006585  -0.004588   0.008741   0.002115   0.008842
     17       0.037278   0.004295  -0.010644   0.010124  -0.011537   0.005723
     18      -0.063425   0.003342   0.010364  -0.025586  -0.001985  -0.007633
     19       0.024083   0.002087  -0.002163   0.010556   0.007336   0.000105
     20       0.026961   0.002313  -0.011887   0.013942  -0.007782  -0.000165
     21      -0.014925  -0.314672   0.167599   0.458730   0.298563  -0.092202
     22       0.005791   0.230678  -0.131024  -0.346571  -0.259730   0.068088
     23      -0.030633  -0.125787   0.083808   0.208223   0.166424  -0.036180
     24       0.614923  -0.202965  -0.082703   0.115864  -0.097764   0.038593
     25      -0.294741   0.091509   0.043280  -0.045039   0.043183  -0.011243
     26      -0.104825   0.024886   0.019227   0.002158   0.033242  -0.005145
     27       0.196549  -0.046484  -0.026154   0.001027  -0.049217   0.000501
     28      -0.044378   0.015267   0.005175  -0.008788   0.001568   0.001716
     29      -0.159254   0.039082   0.031587   0.007132   0.059943  -0.007822
     30       0.064924  -0.024336  -0.031185  -0.053447   0.024180  -0.578870
     31      -0.034185  -0.011312   0.027612   0.043460  -0.020815   0.326479
     32      -0.015725   0.020742  -0.001015   0.008863  -0.008154   0.138131
     33      -0.259256  -0.336344   0.165675   0.093181  -0.194478   0.170528
     34       0.194977   0.254438  -0.129956  -0.077381   0.162650  -0.147918
     35       0.159770   0.208306  -0.095829  -0.072147   0.105049  -0.088436
     36       0.017532  -0.022379  -0.045910   0.006736   0.023493   0.017365
     37       0.009899   0.081276   0.096842   0.050300  -0.006625  -0.012023
     38       0.167082   0.446083   0.587745   0.323573   0.036419   0.026985
     39       0.043128  -0.039068  -0.149772   0.010887   0.132603   0.047142
     40      -0.020192   0.028581   0.112174  -0.011449  -0.038595  -0.012609
     41      -0.001618  -0.113360  -0.365596  -0.115739   0.719372   0.241365
     42      -0.058302   0.046834  -0.272194   0.336261  -0.207009   0.008836
     43       0.021310  -0.004361   0.011369  -0.004338  -0.010757   0.005261
     44       0.276298  -0.274279   0.510368  -0.574600   0.142442  -0.000616
     45       0.299898  -0.469402  -0.023729  -0.016299  -0.270417   0.003989
     46       0.039855  -0.039482  -0.001451  -0.004258  -0.024146   0.002862
     47      -0.043145  -0.002594   0.085004  -0.099070   0.101602  -0.009378
     48      -0.073305   0.063973   0.033685   0.057056  -0.067898   0.170450
     49       0.061847   0.035842  -0.012017   0.031384   0.011530   0.038467
     50       0.087055   0.058143  -0.022407   0.037722   0.026776   0.028185
     51       0.076999   0.024986   0.079283  -0.012475   0.055199   0.599798
     52       0.107213   0.068999   0.013360  -0.016867   0.060462  -0.027257
     53       0.192320   0.113888   0.021084  -0.027194   0.099068  -0.004632
     54       0.019743  -0.002126   0.004555  -0.006242   0.008037  -0.061357
     55      -0.020055   0.010917   0.022045   0.000101   0.029151   0.003179
     56       0.012613   0.011022  -0.001975   0.002261  -0.004087   0.013601
                  54         55         56    
      0      -0.042845   0.017764  -0.022974
      1       0.021292  -0.010669   0.008700
      2       0.013183  -0.001739   0.003786
      3      -0.023119   0.001568  -0.027061
      4       0.008723   0.000356   0.009462
      5       0.008004   0.001526   0.006056
      6      -0.003259  -0.006352  -0.003247
      7      -0.002319   0.008493   0.001779
      8       0.001107   0.002613  -0.000103
      9      -0.000525  -0.005199   0.008765
     10      -0.006654   0.006276  -0.002717
     11      -0.008412   0.003176  -0.001146
     12      -0.019598   0.015548   0.005291
     13      -0.000929  -0.001450  -0.002805
     14      -0.004837   0.016366  -0.001868
     15      -0.010193   0.027237  -0.008090
     16       0.005098  -0.001643   0.001772
     17       0.007373  -0.008832   0.007085
     18      -0.015674   0.015325  -0.022384
     19       0.002527   0.001720   0.006979
     20       0.005540  -0.001512   0.007266
     21      -0.055352   0.035793  -0.036647
     22       0.073991  -0.037584   0.032775
     23      -0.044411   0.021369  -0.019589
     24      -0.004119  -0.014185  -0.019880
     25       0.008534   0.003812   0.012561
     26      -0.003791   0.004378   0.001032
     27      -0.025004   0.003642  -0.005272
     28       0.012134  -0.004841   0.003609
     29      -0.004556   0.014288  -0.004953
     30       0.586050  -0.103025  -0.078040
     31      -0.338173   0.074569   0.035737
     32      -0.131237   0.023090   0.022481
     33       0.083161  -0.035227   0.004607
     34      -0.076061   0.009410   0.002615
     35      -0.049234   0.045443   0.008725
     36       0.007957  -0.014350   0.003643
     37      -0.009917   0.005332  -0.000872
     38       0.013292  -0.012671   0.000994
     39       0.001575  -0.032323   0.004488
     40      -0.001251   0.009049  -0.003320
     41       0.012977  -0.126347  -0.008853
     42       0.069171   0.039765   0.012441
     43       0.003222   0.005642  -0.003225
     44      -0.077508  -0.055074  -0.007176
     45      -0.011282  -0.064823   0.005073
     46      -0.004017  -0.004938  -0.003089
     47      -0.019070  -0.000835  -0.000607
     48       0.057636  -0.917785   0.023495
     49       0.017109  -0.133689   0.012078
     50       0.011183  -0.135440   0.019870
     51       0.690908   0.253150   0.021839
     52      -0.013384   0.017604   0.000825
     53       0.031467   0.056092   0.009916
     54       0.010948   0.033464   0.884283
     55      -0.000866   0.021775  -0.360219
     56       0.008831  -0.004895  -0.269272


-----------
IR SPECTRUM
-----------

 Mode    freq (cm**-1)   T**2         TX         TY         TZ
-------------------------------------------------------------------
  53:      1818.79    4.603220  ( -1.044443  -1.753744   0.660864)
  54:      2021.44   10.801257  ( -1.017203  -3.112220   0.283979)
  55:      2440.55    4.679967  ( -0.200126   1.899018   1.016685)
  56:      3056.24    3.759423  (  0.422135   1.749041   0.722552)

The first frequency considered to be a vibration is 53
The total number of vibrations considered is 4


--------------------------
THERMOCHEMISTRY AT 298.15K
--------------------------

Temperature         ... 298.15 K
Pressure            ... 1.00 atm
Total Mass          ... 98.17 AMU

Throughout the following assumptions are being made:
  (1) The electronic state is orbitally nondegenerate
  (2) There are no thermally accessible electronically excited states
  (3) Hindered rotations indicated by low frequency modes) are not
      treated as such but are treated as vibrations and this may
      case some error
  (4) All equations used are the standard statistical mechanics
      equations for an ideal gas
  (5) All vibrations are strinctly harmonic


------------
INNER ENERGY
------------

The inner energy is: U= E(el) + E(ZPE) + E(vib) + E(rot) + E(trans)
    E(el)   - is the total energy from the electronic structure calculation
              = E(kin-el) + E(nuc-el) + E(el-el) + E(nuc-nuc)
    E(ZPE)  - the the zero temperature vibrational energy from the frequency calculation
    E(vib)  - the the finite temperature correction to E(ZPE) due to population
              of excietd vibrational states
    E(rot)  - is the rotational thermal energy
    E(trans)- is the translational thermal energy

Summary of contributions to the inner energy U:
Electronic energy                ...   -290.10443355 Eh
Zero point energy                ...      0.02127132 Eh      13.35 kcal/mol
Thermal vibrational correction   ...      0.00000190 Eh       0.00 kcal/mol
Thermal rotational correction    ...      0.00141627 Eh       0.89 kcal/mol
Thermal translational correction ...      0.00141627 Eh       0.89 kcal/mol
-----------------------------------------------------------------------
Total thermal energy                   -290.08032778 Eh


Summary of corrections to the electronic energy:
(perhaps to be used in another calculation)
Total thermal correction                  0.00283445 Eh       1.78 kcal/mol
Non-thermal (ZPE) correction              0.02127132 Eh      13.35 kcal/mol
-----------------------------------------------------------------------
Total correction                          0.02410576 Eh      15.13 kcal/mol


--------
ENTHALPY
--------

The enthalpy is H = U + kB*T
                kB is Boltzmann's constant
Total free energy                 ...   -290.08032778 Eh 
Thermal Enthalpy correction       ...      0.00094421 Eh       0.59 kcal/mol
-----------------------------------------------------------------------
Total Enthalpy                    ...   -290.07938357 Eh


-------
ENTROPY
-------

The entropy contributions are T*S = T*(S(el)+S(vib)+S(rot)+S(trans)
     S(el)   - electronic entropy
     S(vib)  - vibrational entropy
     S(rot)  - rotational entropy
     S(trans)- translational entropy
The entropies will be listed as mutliplied by the temperature to get
units of energy

Electronic entropy                ...      0.00000000 Eh      0.00 kcal/mol
Vibrational entropy               ...      0.00000211 Eh      0.00 kcal/mol
Rotational entropy                ...      0.01179930 Eh      7.40 kcal/mol
Translational entropy             ...      0.01884507 Eh     11.83 kcal/mol
-----------------------------------------------------------------------
Final entropy term                ...      0.03064648 Eh     19.23 kcal/mol


CAUTION: The rotational entropy is not quite correctly treated here
         because it includes a symmetry number that is not yet correctly
         implemented in ORCA!
For a nonlinear molecule the correct rotational entropy is:
    S(rot) = R*(ln(qrot/sn)+1.5)
    R    = 8.31441 J/mol/K = 1.987191683e-3 kcal/mol/K
    qrot = 179059.0830964
    sn is the rotational symmetry number. We have assumed 3 here
       if it is different for your molecule then you should correct
       the printed rotational entropy by manually evaluating the equation
       as given above

For convenience we print out the resulting values for sn=1 - 12:
 sn= 1  qrot/sn=  179059.0831 T*S(rot)=     8.06 kcal/mol T*S(tot)=    19.88 kcal/mol
 sn= 2  qrot/sn=   89529.5415 T*S(rot)=     7.64 kcal/mol T*S(tot)=    19.47 kcal/mol
 sn= 3  qrot/sn=   59686.3610 T*S(rot)=     7.40 kcal/mol T*S(tot)=    19.23 kcal/mol
 sn= 4  qrot/sn=   44764.7708 T*S(rot)=     7.23 kcal/mol T*S(tot)=    19.06 kcal/mol
 sn= 5  qrot/sn=   35811.8166 T*S(rot)=     7.10 kcal/mol T*S(tot)=    18.93 kcal/mol
 sn= 6  qrot/sn=   29843.1805 T*S(rot)=     6.99 kcal/mol T*S(tot)=    18.82 kcal/mol
 sn= 7  qrot/sn=   25579.8690 T*S(rot)=     6.90 kcal/mol T*S(tot)=    18.73 kcal/mol
 sn= 8  qrot/sn=   22382.3854 T*S(rot)=     6.82 kcal/mol T*S(tot)=    18.65 kcal/mol
 sn= 9  qrot/sn=   19895.4537 T*S(rot)=     6.75 kcal/mol T*S(tot)=    18.58 kcal/mol
 sn=10  qrot/sn=   17905.9083 T*S(rot)=     6.69 kcal/mol T*S(tot)=    18.52 kcal/mol
 sn=11  qrot/sn=   16278.0985 T*S(rot)=     6.63 kcal/mol T*S(tot)=    18.46 kcal/mol
 sn=12  qrot/sn=   14921.5903 T*S(rot)=     6.58 kcal/mol T*S(tot)=    18.41 kcal/mol


-------------------
GIBBS FREE ENTHALPY
-------------------

The Gibbs free enthalpy is G = H - T*S

Total enthalpy                    ...   -290.07938357 Eh 
Total entropy correction          ...     -0.03064648 Eh    -19.23 kcal/mol
-----------------------------------------------------------------------
Final Gibbs free enthalpy         ...   -290.11003005 Eh

For completeness - the Gibbs free enthalpy minus the electronic energy
G-E(el)                           ...     -0.00559650 Eh     -3.51 kcal/mol


Timings for individual modules:

Sum of individual times         ...     5532.486 sec (=  92.208 min)
GTO integral calculation        ...       23.385 sec (=   0.390 min)   0.4 %
SCF iterations                  ...      923.243 sec (=  15.387 min)  16.7 %
SCF Gradient evaluation         ...      651.995 sec (=  10.867 min)  11.8 %
Geometry relaxation             ...        0.892 sec (=   0.015 min)   0.0 %
Analytical frequency calculation...     3932.972 sec (=  65.550 min)  71.1 %
                             ****ORCA TERMINATED NORMALLY****
TOTAL RUN TIME: 0 days 1 hours 32 minutes 14 seconds 702 msec
