
                                 *****************
                                 * O   R   C   A *
                                 *****************

           --- An Ab Initio, DFT and Semiempirical electronic structure package ---

                  #######################################################
                  #                        -***-                        #
                  #  Department of molecular theory and spectroscopy    #
                  #              Directorship: Frank Neese              #
                  # Max Planck Institute for Chemical Energy Conversion #
                  #                  D-45470 Muelheim/Ruhr              #
                  #                       Germany                       #
                  #                                                     #
                  #                  All rights reserved                #
                  #                        -***-                        #
                  #######################################################


                         Program Version 3.0.3 - RELEASE   -


 With contributions from (in alphabetic order):
   Ute Becker             : Parallelization
   Dmytro Bykov           : SCF Hessian
   Dmitry Ganyushin       : Spin-Orbit,Spin-Spin,Magnetic field MRCI
   Andreas Hansen         : Spin unrestricted coupled pair/coupled cluster methods
   Dimitrios Liakos       : Extrapolation schemes; parallel MDCI
   Robert Izsak           : Overlap fitted RIJCOSX, COSX-SCS-MP3
   Christian Kollmar      : KDIIS, OOCD, Brueckner-CCSD(T), CCSD density
   Simone Kossmann        : Meta GGA functionals, TD-DFT gradient, OOMP2, MP2 Hessian
   Taras Petrenko         : DFT Hessian,TD-DFT gradient, ASA and ECA modules, normal mode analysis, Resonance Raman, ABS, FL, XAS/XES, NRVS
   Christoph Reimann      : Effective Core Potentials
   Michael Roemelt        : Restricted open shell CIS
   Christoph Riplinger    : Improved optimizer, TS searches, QM/MM, DLPNO-CCSD
   Barbara Sandhoefer     : DKH picture change effects
   Igor Schapiro          : Molecular dynamics
   Kantharuban Sivalingam : CASSCF convergence, NEVPT2
   Boris Wezisla          : Elementary symmetry handling
   Frank Wennmohs         : Technical directorship


 We gratefully acknowledge several colleagues who have allowed us to
 interface, adapt or use parts of their codes:
   Stefan Grimme, W. Hujo, H. Kruse, T. Risthaus : VdW corrections, initial TS optimization,
                                                   DFT functionals, gCP
   Ed Valeev                                     : LibInt (2-el integral package), F12 methods
   Garnet Chan, S. Sharma, R. Olivares           : DMRG
   Ulf Ekstrom                                   : XCFun DFT Library
   Mihaly Kallay                                 : mrcc  (arbitrary order and MRCC methods)
   Andreas Klamt, Michael Diedenhofen            : otool_cosmo (COSMO solvation model)
   Frank Weinhold                                : gennbo (NPA and NBO analysis)
   Christopher J. Cramer and Donald G. Truhlar   : smd solvation model


 Your calculation uses the libint2 library for the computation of 2-el integrals
 For citations please refer to: http://libint.valeyev.net

 This ORCA versions uses:
   CBLAS   interface :  Fast vector & matrix operations
   LAPACKE interface :  Fast linear algebra routines
   SCALAPACK package :  Parallel linear algebra routines


Your calculation utilizes the basis: Ahlrichs-TZV
Cite in your paper:
H - Kr: A. Schaefer, H. Horn and R. Ahlrichs, J. Chem. Phys. 97, 2571 (1992).

The def2-TZV basis will be loaded
Cite in your paper:
 	F. Weigend, R. Ahlrichs, Phys. Chem. Chem. Phys. 2005, 7, 3297.

================================================================================
                                        WARNINGS
                       Please study these warnings very carefully!
================================================================================
Now building the actual basis set
WARNING: Geometry optimizations can change the point-group symmetry!

WARNING: Geometry Optimization
  ===> : Switching off AutoStart
         For restart on a previous wavefunction, please use MOREAD


INFO   : the flag for use of LIBINT has been found!

================================================================================
                                       INPUT FILE
================================================================================
NAME = 1800_+.inp
|  1> ! NORI PBE0 def2-TZVP UseSym TightOPT Freq TightSCF Grid3 FinalGrid5 XYZFile
|  2> % pal
|  3>     nprocs 8
|  4> end
|  5> %method
|  6>     SymThresh 5.0e-2
|  7> end
|  8> % geom 
|  9>     MaxIter 10
| 10> end 
| 11> % maxcore 2000
| 12> % output
| 13>     printlevel mini
| 14>     print[ P_Basis ] 0
| 15>     print[ P_SCFInfo ] 1
| 16>     print[ P_SCFIterInfo ] 1
| 17>     print[ P_OrbEn ] 0
| 18>     print[ P_Cartesian ] 0
| 19> end
| 20> % elprop
| 21>     Dipole false
| 22> end
| 23> *xyz 1 1
| 24>  C        0.8844560531    -0.0350443339    -0.2055284533 
| 25>  C        2.3612652394     0.0867806903     0.0491011209 
| 26>  C        2.7360382273    -0.1043586914     1.4924591704 
| 27>  N        3.2316756320    -0.6637455163    -0.9351085010 
| 28>  C        3.2429939416     0.8491085142    -0.8826870398 
| 29>  C        2.6856897762     1.5211582303    -2.1067892149 
| 30>  C        4.5383024548     1.4496698470    -0.4108887056 
| 31>  H        0.6167161991    -0.0387202529    -1.2607486959 
| 32>  H        0.3759819769     0.8098446979     0.2635538920 
| 33>  H        0.4986607503    -0.9476798827     0.2520053113 
| 34>  H        3.8092405537    -0.1459612874     1.6695752047 
| 35>  H        2.2850330377    -1.0197228972     1.8791385719 
| 36>  H        2.3353223951     0.7307658181     2.0708177089 
| 37>  H        4.0403051813    -1.1608271528    -0.5789725085 
| 38>  H        2.7802693824    -1.1095845209    -1.7258991637 
| 39>  H        3.4514571673     1.5830254704    -2.8824281946 
| 40>  H        2.3984077763     2.5413452236    -1.8452804040 
| 41>  H        1.8097580211     1.0269973643    -2.5225649229 
| 42>  H        5.2451167872     1.5170110120    -1.2402204980 
| 43>  H        5.0095241292     0.9024805285     0.4033596340 
| 44>  H        4.3444953182     2.4651771388    -0.0600443118 
| 45> *
| 46> 
| 47>                          ****END OF INPUT****
================================================================================
************************************************************************
TMoleculeSymmetry::Self Diagnostic:
I have:  Pointer to Basis Set: yes; Pointer to Geometry: yes
         Masses: yes; Atomic Numbers: yes; Coordinates: yes
         BaseIndices: yes
+-----+------+----------+-------------------------------------------+-----+
|  #  | ATNO |   MASS   |               COORDS (A.U.)               | BAS |
+-----+------+----------+-------------------------------------------+-----+
|   0 |    6 |  12.0110 |  -2.877578266   2.374657467   0.607424615 |   0 |
|   1 |    6 |  12.0110 |  -1.410690747  -0.000985864   0.080677712 |   0 |
|   2 |    6 |  12.0110 |  -2.880122895  -2.374657467   0.607961758 |   0 |
|   3 |    7 |  14.0070 |   0.000357049   0.003629068  -2.406315337 |   0 |
|   4 |    6 |  12.0110 |   1.409257065  -0.000682936   0.083352640 |   0 |
|   5 |    6 |  12.0110 |   2.879419739   2.372364674   0.612736909 |   0 |
|   6 |    6 |  12.0110 |   2.878395045  -2.375835028   0.607558085 |   0 |
|   7 |    1 |   1.0080 |  -1.934538955   4.093882877  -0.014928757 |   0 |
|   8 |    1 |   1.0080 |  -3.185146706   2.528102825   2.642141078 |   0 |
|   9 |    1 |   1.0080 |  -4.728402915   2.280945974  -0.297609058 |   0 |
|  10 |    1 |   1.0080 |  -1.930202686  -4.097673312   0.007882975 |   0 |
|  11 |    1 |   1.0080 |  -4.722791213  -2.287268163  -0.313681264 |   0 |
|  12 |    1 |   1.0080 |  -3.205707492  -2.511252285   2.641148478 |   0 |
|  13 |    1 |   1.0080 |   0.004317635  -1.602885109  -3.450084435 |   0 |
|  14 |    1 |   1.0080 |  -0.000160297   1.618367250  -3.437470908 |   0 |
|  15 |    1 |   1.0080 |   4.710333120   2.298666210  -0.335141602 |   0 |
|  16 |    1 |   1.0080 |   3.233001545   2.491658705   2.641624378 |   0 |
|  17 |    1 |   1.0080 |   1.915275379   4.097393128   0.043536572 |   0 |
|  18 |    1 |   1.0080 |   4.712101606  -2.298621506  -0.334755750 |   0 |
|  19 |    1 |   1.0080 |   1.916245629  -4.099531047   0.030542672 |   0 |
|  20 |    1 |   1.0080 |   3.226443256  -2.500977985   2.637233590 |   0 |
+-----+------+----------+-------------------------------------------+-----+

FLAGS:
  Molecule has been checked for linearity/planarity: yes
   -- Molecule is flagged linear:                    no
   -- Molecule is flagged planar:                    no
  Molecule has been checked for inversion center:    no
  Do coordinate transforms to normal coordinates:    yes
  Molecule was moved to center of mass:              yes
   -- Ignore H's in Mass centration:                 no
  The PointGroup was looked up:                      yes
   -- Stored PointGroup:                             C2v
   -- PointGroup initialized                         yes
   -- Structure was cleaned up:                      no
   -- Atom transfer table was set up:                no
   -- Asymmetric unit was set up:                    no
  Support Check done:                                no
  SALCs built up:                                    no
************************************************************************
Atom transferred to symop: -1.934538955  4.093882877 -0.014928757
Atom recieved as image:     1.934538955  4.093882877 -0.014928757
Symmetry Operation: Reflection
Defining Axis or Normal:
  -1.000000000  0.000000000  0.000000000
Matrix:
  -1.000000000  0.000000000  0.000000000
   0.000000000  1.000000000  0.000000000
   0.000000000  0.000000000  1.000000000
Error mapping atom 7 to SymOp 3!
Error (ORCA_SYM): TMoleculeSymmetry::CreateAtomTransferTable An atom is not mapped to another atom's position!
