
                                 *****************
                                 * O   R   C   A *
                                 *****************

           --- An Ab Initio, DFT and Semiempirical electronic structure package ---

                  #######################################################
                  #                        -***-                        #
                  #  Department of molecular theory and spectroscopy    #
                  #              Directorship: Frank Neese              #
                  # Max Planck Institute for Chemical Energy Conversion #
                  #                  D-45470 Muelheim/Ruhr              #
                  #                       Germany                       #
                  #                                                     #
                  #                  All rights reserved                #
                  #                        -***-                        #
                  #######################################################


                         Program Version 3.0.3 - RELEASE   -


 With contributions from (in alphabetic order):
   Ute Becker             : Parallelization
   Dmytro Bykov           : SCF Hessian
   Dmitry Ganyushin       : Spin-Orbit,Spin-Spin,Magnetic field MRCI
   Andreas Hansen         : Spin unrestricted coupled pair/coupled cluster methods
   Dimitrios Liakos       : Extrapolation schemes; parallel MDCI
   Robert Izsak           : Overlap fitted RIJCOSX, COSX-SCS-MP3
   Christian Kollmar      : KDIIS, OOCD, Brueckner-CCSD(T), CCSD density
   Simone Kossmann        : Meta GGA functionals, TD-DFT gradient, OOMP2, MP2 Hessian
   Taras Petrenko         : DFT Hessian,TD-DFT gradient, ASA and ECA modules, normal mode analysis, Resonance Raman, ABS, FL, XAS/XES, NRVS
   Christoph Reimann      : Effective Core Potentials
   Michael Roemelt        : Restricted open shell CIS
   Christoph Riplinger    : Improved optimizer, TS searches, QM/MM, DLPNO-CCSD
   Barbara Sandhoefer     : DKH picture change effects
   Igor Schapiro          : Molecular dynamics
   Kantharuban Sivalingam : CASSCF convergence, NEVPT2
   Boris Wezisla          : Elementary symmetry handling
   Frank Wennmohs         : Technical directorship


 We gratefully acknowledge several colleagues who have allowed us to
 interface, adapt or use parts of their codes:
   Stefan Grimme, W. Hujo, H. Kruse, T. Risthaus : VdW corrections, initial TS optimization,
                                                   DFT functionals, gCP
   Ed Valeev                                     : LibInt (2-el integral package), F12 methods
   Garnet Chan, S. Sharma, R. Olivares           : DMRG
   Ulf Ekstrom                                   : XCFun DFT Library
   Mihaly Kallay                                 : mrcc  (arbitrary order and MRCC methods)
   Andreas Klamt, Michael Diedenhofen            : otool_cosmo (COSMO solvation model)
   Frank Weinhold                                : gennbo (NPA and NBO analysis)
   Christopher J. Cramer and Donald G. Truhlar   : smd solvation model


 Your calculation uses the libint2 library for the computation of 2-el integrals
 For citations please refer to: http://libint.valeyev.net

 This ORCA versions uses:
   CBLAS   interface :  Fast vector & matrix operations
   LAPACKE interface :  Fast linear algebra routines
   SCALAPACK package :  Parallel linear algebra routines


Your calculation utilizes the basis: Ahlrichs-TZV
Cite in your paper:
H - Kr: A. Schaefer, H. Horn and R. Ahlrichs, J. Chem. Phys. 97, 2571 (1992).

The def2-TZV basis will be loaded
Cite in your paper:
 	F. Weigend, R. Ahlrichs, Phys. Chem. Chem. Phys. 2005, 7, 3297.

================================================================================
                                        WARNINGS
                       Please study these warnings very carefully!
================================================================================
Now building the actual basis set
WARNING: Geometry optimizations can change the point-group symmetry!

WARNING: Geometry Optimization
  ===> : Switching off AutoStart
         For restart on a previous wavefunction, please use MOREAD


INFO   : the flag for use of LIBINT has been found!

================================================================================
                                       INPUT FILE
================================================================================
NAME = 2025_+.inp
|  1> ! NORI PBE0 def2-TZVP UseSym TightOPT Freq TightSCF Grid3 FinalGrid5 XYZFile
|  2> % pal
|  3>     nprocs 8
|  4> end
|  5> %method
|  6>     SymThresh 5.0e-2
|  7> end
|  8> % geom 
|  9>     MaxIter 10
| 10> end 
| 11> % maxcore 2000
| 12> % output
| 13>     printlevel mini
| 14>     print[ P_Basis ] 0
| 15>     print[ P_SCFInfo ] 1
| 16>     print[ P_SCFIterInfo ] 1
| 17>     print[ P_OrbEn ] 0
| 18>     print[ P_Cartesian ] 0
| 19> end
| 20> % elprop
| 21>     Dipole false
| 22> end
| 23> *xyz 1 1
| 24>  C        0.9514144769     0.1149089509     0.4959277958 
| 25>  C        2.4455187653     0.1553126673     0.4639471626 
| 26>  C        3.1776170146     1.2543473765     0.6068452140 
| 27>  C        4.6582889165     1.2817839126     0.5899040080 
| 28>  C        5.4830838129     0.2400240534    -0.1074268031 
| 29>  C        5.3790380700     1.6083710200    -0.6825920658 
| 30>  N        6.5760123299     2.4849518508    -0.6206701844 
| 31>  H        0.5771187186    -0.8985947665     0.3607185542 
| 32>  H        0.5195211309     0.7382263453    -0.2908752462 
| 33>  H        0.5686489360     0.4867770718     1.4495968871 
| 34>  H        2.9596844486    -0.7940888596     0.3279755918 
| 35>  H        2.6919899985     2.2135914727     0.7757273683 
| 36>  H        5.1192408669     1.6938856154     1.4881005563 
| 37>  H        6.4151113524    -0.0615288784     0.3579410063 
| 38>  H        4.9856195311    -0.5490830810    -0.6553161400 
| 39>  H        4.8180683454     1.7800104373    -1.5922459977 
| 40>  H        7.0817149214     2.3456622736     0.2573158237 
| 41>  H        6.3180206616     3.4739948506    -0.6729530586 
| 42>  H        7.2278477024     2.2866576874    -1.3849304721 
| 43> *
| 44> 
| 45>                          ****END OF INPUT****
================================================================================

The point group is C1 - hence turning off symmetry
If this is a round-off problem, please increase the symmetry
        detection tolerance (%method SymThresh)


                       *****************************
                       * Geometry Optimization Run *
                       *****************************

Geometry optimization settings:
Update method            Update   .... BFGS
Choice of coordinates    CoordSys .... Redundant Internals
Initial Hessian          InHess   .... Almoef's Model

Convergence Tolerances:
Energy Change            TolE     ....  1.0000e-06 Eh
Max. Gradient            TolMAXG  ....  1.0000e-04 Eh/bohr
RMS Gradient             TolRMSG  ....  3.0000e-05 Eh/bohr
Max. Displacement        TolMAXD  ....  1.0000e-03 bohr
RMS Displacement         TolRMSD  ....  6.0000e-04 bohr

------------------------------------------------------------------------------
                        ORCA OPTIMIZATION COORDINATE SETUP
------------------------------------------------------------------------------

The optimization will be done in new redundant internal coordinates
Making redundant internal coordinates   ...  (new redundants) done
Evaluating the initial hessian          ...  (Almloef) done
Evaluating the coordinates              ...  done
Calculating the B-matrix                .... done
Calculating the G-matrix                .... done
Diagonalizing the G-matrix              .... done
Small eigenvalue found = 2.350e-02
The first mode is                       ....   53
The number of degrees of freedom        ....   51

    -----------------------------------------------------------------
                    Redundant Internal Coordinates


    -----------------------------------------------------------------
         Definition                    Initial Value    Approx d2E/dq
    -----------------------------------------------------------------
      1. B(C   1,C   0)                  1.4950         0.424844   
      2. B(C   2,C   1)                  1.3283         0.783875   
      3. B(C   3,C   2)                  1.4810         0.447216   
      4. B(C   4,C   3)                  1.5006         0.416172   
      5. B(C   5,C   4)                  1.4880         0.435969   
      6. B(C   5,C   3)                  1.4985         0.419466   
      7. B(N   6,C   5)                  1.4849         0.394860   
      8. B(H   7,C   0)                  1.0888         0.361640   
      9. B(H   8,C   0)                  1.0928         0.356473   
     10. B(H   9,C   0)                  1.0928         0.356374   
     11. B(H  10,C   1)                  1.0882         0.362465   
     12. B(H  11,C   2)                  1.0883         0.362290   
     13. B(H  12,C   3)                  1.0904         0.359517   
     14. B(H  13,C   4)                  1.0845         0.367427   
     15. B(H  14,C   4)                  1.0818         0.371080   
     16. B(H  15,C   5)                  1.0824         0.370278   
     17. B(H  16,N   6)                  1.0227         0.412924   
     18. B(H  17,N   6)                  1.0235         0.411811   
     19. B(H  18,N   6)                  1.0239         0.411217   
     20. A(C   1,C   0,H   8)          111.3571         0.330715   
     21. A(H   8,C   0,H   9)          107.2055         0.289904   
     22. A(H   7,C   0,H   8)          107.7984         0.290572   
     23. A(C   1,C   0,H   9)          111.0704         0.330699   
     24. A(C   1,C   0,H   7)          111.4724         0.331503   
     25. A(H   7,C   0,H   9)          107.7401         0.290559   
     26. A(C   0,C   1,H  10)          116.8270         0.331628   
     27. A(C   2,C   1,H  10)          118.3528         0.367709   
     28. A(C   0,C   1,C   2)          124.8134         0.423041   
     29. A(C   3,C   2,H  11)          115.5657         0.334436   
     30. A(C   1,C   2,C   3)          124.4120         0.426944   
     31. A(C   1,C   2,H  11)          120.0021         0.367679   
     32. A(C   2,C   3,C   4)          122.8175         0.381824   
     33. A(C   5,C   3,H  12)          114.4434         0.330483   
     34. A(C   4,C   3,C   5)           59.4898         0.377609   
     35. A(C   4,C   3,H  12)          114.3803         0.330052   
     36. A(C   2,C   3,H  12)          114.8472         0.334010   
     37. A(C   2,C   3,C   5)          119.6454         0.382347   
     38. A(H  13,C   4,H  14)          114.1849         0.293145   
     39. A(C   5,C   4,H  14)          116.2870         0.334353   
     40. A(C   3,C   4,H  14)          119.2739         0.331786   
     41. A(C   5,C   4,H  13)          118.7941         0.333804   
     42. A(C   3,C   4,C   5)           60.1834         0.380141   
     43. A(C   3,C   4,H  13)          117.7741         0.331243   
     44. A(C   3,C   5,C   4)           60.3268         0.380661   
     45. A(C   4,C   5,H  15)          120.4586         0.334233   
     46. A(C   3,C   5,H  15)          119.9303         0.332100   
     47. A(C   4,C   5,N   6)          118.0593         0.374330   
     48. A(N   6,C   5,H  15)          111.0510         0.326824   
     49. A(C   3,C   5,N   6)          118.7488         0.371849   
     50. A(C   5,N   6,H  16)          110.7309         0.329924   
     51. A(H  17,N   6,H  18)          108.0295         0.298441   
     52. A(H  16,N   6,H  18)          107.4352         0.298569   
     53. A(C   5,N   6,H  18)          111.5759         0.329698   
     54. A(H  16,N   6,H  17)          107.4639         0.298638   
     55. A(C   5,N   6,H  17)          111.4162         0.329777   
     56. D(C   2,C   1,C   0,H   7)   -179.7650         0.013338   
     57. D(H  10,C   1,C   0,H   7)     -0.7319         0.013338   
     58. D(C   2,C   1,C   0,H   9)    -59.6038         0.013338   
     59. D(H  10,C   1,C   0,H   8)   -121.1629         0.013338   
     60. D(C   2,C   1,C   0,H   8)     59.8040         0.013338   
     61. D(H  10,C   1,C   0,H   9)    119.4293         0.013338   
     62. D(H  11,C   2,C   1,C   0)      0.9392         0.044211   
     63. D(H  11,C   2,C   1,H  10)   -178.0803         0.044211   
     64. D(C   3,C   2,C   1,H  10)      0.2104         0.044211   
     65. D(C   3,C   2,C   1,C   0)    179.2299         0.044211   
     66. D(C   5,C   3,C   2,H  11)    -85.6728         0.014751   
     67. D(C   5,C   3,C   2,C   1)     95.9682         0.014751   
     68. D(H  12,C   3,C   2,C   1)   -122.0115         0.014751   
     69. D(C   4,C   3,C   2,H  11)   -156.5212         0.014751   
     70. D(C   4,C   3,C   2,C   1)     25.1197         0.014751   
     71. D(H  12,C   3,C   2,H  11)     56.3475         0.014751   
     72. D(H  14,C   4,C   3,H  12)    149.6128         0.013709   
     73. D(H  14,C   4,C   3,C   2)      2.3437         0.013709   
     74. D(H  13,C   4,C   3,H  12)      3.9177         0.013709   
     75. D(H  13,C   4,C   3,C   5)    109.0028         0.013709   
     76. D(H  13,C   4,C   3,C   2)   -143.3514         0.013709   
     77. D(H  14,C   4,C   3,C   5)   -105.3021         0.013709   
     78. D(C   5,C   4,C   3,H  12)   -105.0851         0.013709   
     79. D(C   5,C   4,C   3,C   2)    107.6458         0.013709   
     80. D(H  15,C   5,C   3,C   2)     -2.6646         0.013922   
     81. D(N   6,C   5,C   3,H  12)     -2.7751         0.013922   
     82. D(N   6,C   5,C   3,C   4)   -107.7535         0.013922   
     83. D(N   6,C   5,C   3,C   2)    139.3894         0.013922   
     84. D(C   4,C   5,C   3,H  12)    104.9784         0.013922   
     85. D(H  15,C   5,C   3,C   4)    110.1925         0.013922   
     86. D(C   4,C   5,C   3,C   2)   -112.8570         0.013922   
     87. D(H  15,C   5,C   4,H  14)      0.8766         0.015020   
     88. D(H  15,C   5,C   4,C   3)   -109.3370         0.015020   
     89. D(N   6,C   5,C   4,H  14)   -140.9065         0.015020   
     90. D(N   6,C   5,C   4,H  13)      1.5497         0.015020   
     91. D(N   6,C   5,C   4,C   3)    108.8799         0.015020   
     92. D(C   3,C   5,C   4,H  14)    110.2136         0.015020   
     93. D(H  15,C   5,C   4,H  13)    143.3328         0.015020   
     94. D(C   3,C   5,C   4,H  13)   -107.3303         0.015020   
     95. D(H  15,C   5,C   3,H  12)   -144.8291         0.013922   
     96. D(H  18,N   6,C   5,H  15)    -62.6484         0.014254   
     97. D(H  18,N   6,C   5,C   4)     82.5037         0.014254   
     98. D(H  18,N   6,C   5,C   3)    152.1729         0.014254   
     99. D(H  17,N   6,C   5,H  15)     58.1896         0.014254   
    100. D(H  17,N   6,C   5,C   4)   -156.6583         0.014254   
    101. D(H  17,N   6,C   5,C   3)    -86.9892         0.014254   
    102. D(H  16,N   6,C   5,H  15)    177.7361         0.014254   
    103. D(H  16,N   6,C   5,C   4)    -37.1118         0.014254   
    104. D(H  16,N   6,C   5,C   3)     32.5573         0.014254   
    -----------------------------------------------------------------

Number of atoms                         .... 19
Number of degrees of freedom            .... 104

         *************************************************************
         *                GEOMETRY OPTIMIZATION CYCLE   1            *
         *************************************************************


           ************************************************************
           *        Program running with 8 parallel MPI-processes     *
           *              working on a common directory               *
           ************************************************************
           ************************************************************
           *              Shut down parallel processing               *
           ************************************************************


           ************************************************************
           *        Program running with 8 parallel MPI-processes     *
           *              working on a common directory               *
           ************************************************************
------------
SCF SETTINGS
------------
Hamiltonian:
 Density Functional     Method          .... DFT(GTOs)
 Exchange Functional    Exchange        .... PBE
   PBE kappa parameter  XKappa          ....  0.804000
 Correlation Functional Correlation     .... PBE
 LDA part of GGA corr.  LDAOpt          .... PW91-LDA
 Gradients option       PostSCFGGA      .... off
 Hybrid DFT is turned on
   Fraction HF Exchange ScalHFX         ....  0.250000
   Scaling of DF-GGA-X  ScalDFX         ....  0.750000
   Scaling of DF-GGA-C  ScalDFC         ....  1.000000
   Scaling of DF-LDA-C  ScalLDAC        ....  1.000000
   Perturbative correction              ....  0.000000
   NL short-range parameter             ....  6.900000


General Settings:
 Integral files         IntName         .... 2025_+
 Hartree-Fock type      HFTyp           .... RHF
 Total Charge           Charge          ....    1
 Multiplicity           Mult            ....    1
 Number of Electrons    NEL             ....   54
 Basis Dimension        Dim             ....  289
 Nuclear Repulsion      ENuc            ....    300.0731456467 Eh

Convergence Acceleration:
 DIIS                   CNVDIIS         .... on
   Start iteration      DIISMaxIt       ....    12
   Startup error        DIISStart       ....  0.200000
   # of expansion vecs  DIISMaxEq       ....     5
   Bias factor          DIISBfac        ....   1.050
   Max. coefficient     DIISMaxC        ....  10.000
 Newton-Raphson         CNVNR           .... off
 SOSCF                  CNVSOSCF        .... on
   Start iteration      SOSCFMaxIt      ....   150
   Startup grad/error   SOSCFStart      ....  0.003300
 Level Shifting         CNVShift        .... on
   Level shift para.    LevelShift      ....    0.2500
   Turn off err/grad.   ShiftErr        ....    0.0010
 Zerner damping         CNVZerner       .... off
 Static damping         CNVDamp         .... on
   Fraction old density DampFac         ....    0.7000
   Max. Damping (<1)    DampMax         ....    0.9800
   Min. Damping (>=0)   DampMin         ....    0.0000
   Turn off err/grad.   DampErr         ....    0.1000
 Fernandez-Rico         CNVRico         .... off

SCF Procedure:
 Maximum # iterations   MaxIter         ....   125
 SCF integral mode      SCFMode         .... Direct
   Integral package                     .... LIBINT
 Reset frequeny         DirectResetFreq ....    20
 Integral Threshold     Thresh          ....  2.500e-11 Eh
 Primitive CutOff       TCut            ....  2.500e-12 Eh

Convergence Tolerance:
 Convergence Check Mode ConvCheckMode   .... Total+1el-Energy
 Energy Change          TolE            ....  1.000e-08 Eh
 1-El. energy change                    ....  1.000e-05 Eh
 Orbital Gradient       TolG            ....  1.000e-05
 Orbital Rotation angle TolX            ....  1.000e-05
 DIIS Error             TolErr          ....  5.000e-07


Diagonalization of the overlap matrix:
Smallest eigenvalue                        ... 1.158e-04
Time for diagonalization                   ...    0.340 sec
Threshold for overlap eigenvalues          ... 1.000e-08
Number of eigenvalues below threshold      ... 0
Time for construction of square roots      ...    0.023 sec
Total time needed                          ...    0.364 sec

-------------------
DFT GRID GENERATION
-------------------

General Integration Accuracy     IntAcc      ...  4.340
Radial Grid Type                 RadialGrid  ... Gauss-Chebyshev
Angular Grid (max. acc.)         AngularGrid ... Lebedev-194
Angular grid pruning method      GridPruning ... 3 (G Style)
Weight generation scheme         WeightScheme... Becke
Basis function cutoff            BFCut       ...    1.0000e-11
Integration weight cutoff        WCut        ...    1.0000e-14
Grids for H and He will be reduced by one unit

# of grid points (after initial pruning)     ...  41338 (   0.0 sec)
# of grid points (after weights+screening)   ...  37951 (   0.2 sec)
nearest neighbour list constructed           ...    0.0 sec
Grid point re-assignment to atoms done       ...    0.0 sec
Grid point division into batches done        ...    0.1 sec
Reduced shell lists constructed in    0.3 sec

Total number of grid points                  ...    37951
Total number of batches                      ...      602
Average number of points per batch           ...       63
Average number of grid points per atom       ...     1997
Average number of shells per batch           ...    90.42 (72.33%)
Average number of basis functions per batch  ...   214.81 (74.33%)
Average number of large shells per batch     ...    72.73 (80.44%)
Average number of large basis fcns per batch ...   172.91 (80.50%)
Maximum spatial batch extension              ...   4.40,  3.92,  2.93 au
Average spatial batch extension              ...   0.18,  0.18,  0.17 au

Time for grid setup =    0.877 sec

Loading Hartree-Fock densities                     ... done
Calculating cut-offs                               ... done
Setting up the integral package                    ... done
Initializing the effective Hamiltonian             ... done
Starting the Coulomb interaction                   ... done (   0.1 sec)
Reading the grid                                   ... done
Mapping shells                                     ... done
Starting the XC term evaluation                    ... done (   0.5 sec)
  promolecular density results
     # of electrons  =     54.995945906
     EX              =    -40.824255906
     EC              =     -1.795224709
     EX+EC           =    -42.619480614
Transforming the Hamiltonian                       ... done (   0.0 sec)
Diagonalizing the Hamiltonian                      ... done (   0.3 sec)
Back transforming the eigenvectors                 ... done (   0.0 sec)
Now organizing SCF variables                       ... done
--------------
SCF ITERATIONS
--------------
ITER       Energy         Delta-E        Max-DP      RMS-DP      [F,P]     Damp
               ***  Starting incremental Fock matrix formation  ***
  0   -289.8782442303   0.000000000000 0.03274677  0.00091362  0.1810973 0.7000
  1   -289.9643236299  -0.086079399573 0.03051720  0.00075751  0.0970016 0.7000
                               ***Turning on DIIS***
  2   -290.0027752076  -0.038451577757 0.06113631  0.00148062  0.0385651 0.0000
  3   -290.0572891515  -0.054513943842 0.01696631  0.00048364  0.0534041 0.0000
  4   -290.0717096263  -0.014420474815 0.00626707  0.00018150  0.0094965 0.0000
                      *** Initiating the SOSCF procedure ***
                           *** Shutting down DIIS ***
                      *** Re-Reading the Fockian *** 
                      *** Removing any level shift *** 
ITER      Energy       Delta-E        Grad      Rot      Max-DP    RMS-DP
  5   -290.07225843  -0.0005488019  0.000477  0.000477  0.002713  0.000073
               *** Restarting incremental Fock matrix formation ***
  6   -290.07229200  -0.0000335731  0.000258  0.000900  0.001702  0.000046
  7   -290.07229268  -0.0000006748  0.000378  0.000694  0.000443  0.000011
  8   -290.07229637  -0.0000036920  0.000108  0.000283  0.000229  0.000007
  9   -290.07229630   0.0000000638  0.000076  0.000098  0.000089  0.000002
 10   -290.07229658  -0.0000002797  0.000006  0.000012  0.000034  0.000001
 11   -290.07229658  -0.0000000008  0.000006  0.000005  0.000010  0.000000
                 **** Energy Check signals convergence ****
              ***Rediagonalizing the Fockian in SOSCF/NRSCF***

               *****************************************************
               *                     SUCCESS                       *
               *           SCF CONVERGED AFTER  12 CYCLES          *
               *****************************************************

Setting up the final grid:

General Integration Accuracy     IntAcc      ...  5.010
Radial Grid Type                 RadialGrid  ... Gauss-Chebyshev
Angular Grid (max. acc.)         AngularGrid ... Lebedev-434
Angular grid pruning method      GridPruning ... 3 (G Style)
Weight generation scheme         WeightScheme... Becke
Basis function cutoff            BFCut       ...    1.0000e-11
Integration weight cutoff        WCut        ...    1.0000e-14
Grids for H and He will be reduced by one unit

# of grid points (after initial pruning)     ... 155082 (   0.0 sec)
# of grid points (after weights+screening)   ... 140715 (   0.3 sec)
nearest neighbour list constructed           ...    0.0 sec
Grid point re-assignment to atoms done       ...    0.0 sec
Grid point division into batches done        ...    1.0 sec
Reduced shell lists constructed in    1.3 sec

Total number of grid points                  ...   140715
Total number of batches                      ...     2208
Average number of points per batch           ...       63
Average number of grid points per atom       ...     7406
Average number of shells per batch           ...    89.69 (71.75%)
Average number of basis functions per batch  ...   213.30 (73.81%)
Average number of large shells per batch     ...    71.08 (79.25%)
Average number of large basis fcns per batch ...   169.49 (79.46%)
Maximum spatial batch extension              ...   3.21,  5.17,  3.03 au
Average spatial batch extension              ...   0.11,  0.11,  0.11 au

Final grid set up in    1.9 sec
Final integration                            ... done (   0.9 sec)
Change in XC energy                          ...     0.000581284
Integrated number of electrons               ...    54.000026738
Previous integrated no of electrons          ...    54.001287081
Total Energy       :         -290.07171530 Eh           -7893.25266 eV
  Last Energy change         ...   -1.4741e-09  Tolerance :   1.0000e-08
  Last MAX-Density change    ...    4.8243e-06  Tolerance :   1.0000e-07
             **** THE GBW FILE WAS UPDATED (2025_+.gbw) ****
             **** DENSITY FILE WAS UPDATED (2025_+.scfp.tmp) ****
             **** ENERGY FILE WAS UPDATED (2025_+.en.tmp) ****
Total SCF time: 0 days 0 hours 1 min 45 sec 
           ************************************************************
           *              Shut down parallel processing               *
           ************************************************************

-------------------------   --------------------
FINAL SINGLE POINT ENERGY      -290.071715302599
-------------------------   --------------------



           ************************************************************
           *        Program running with 8 parallel MPI-processes     *
           *              working on a common directory               *
           ************************************************************
------------------------------------------------------------------------------
                         ORCA SCF GRADIENT CALCULATION
------------------------------------------------------------------------------

Gradient of the Kohn-Sham DFT energy:
Kohn-Sham wavefunction type      ... RKS
Hartree-Fock exchange scaling    ...    0.250
Number of operators              ...    1
Number of atoms                  ...   19
Basis set dimensions             ...  289
Integral neglect threshold       ... 2.5e-11
Integral primitive cutoff        ... 2.5e-12

Nuclear repulsion gradient       ... done
One Electron Gradient            ... done
Pre-screening matrix             ... done
Starting the two electron gradient:
Two electron gradient done
Exchange-correlation gradient    ... done

------------------
CARTESIAN GRADIENT
------------------

   1   C   :   -0.000160234   -0.000119480    0.000117607
   2   C   :    0.000240377    0.000194287    0.000122180
   3   C   :   -0.000228298   -0.000243361   -0.000223477
   4   C   :   -0.000167505    0.000096021    0.000055574
   5   C   :    0.000076744    0.000073293   -0.000071663
   6   C   :   -0.000103486    0.000040142   -0.000009488
   7   N   :    0.000179968   -0.000023978   -0.000068530
   8   H   :    0.000004052    0.000068872    0.000025436
   9   H   :    0.000067843    0.000001490   -0.000037764
  10   H   :    0.000067203    0.000012393   -0.000040545
  11   H   :   -0.000050420   -0.000095125    0.000087225
  12   H   :    0.000036990    0.000092820    0.000004090
  13   H   :    0.000068854   -0.000119954   -0.000049014
  14   H   :   -0.000013875   -0.000029611    0.000022739
  15   H   :    0.000054797    0.000093419   -0.000060814
  16   H   :   -0.000000323   -0.000029287    0.000013285
  17   H   :   -0.000129217    0.000078297    0.000025177
  18   H   :    0.000090849    0.000033384    0.000025866
  19   H   :   -0.000034319   -0.000123622    0.000062115

Norm of the cartesian gradient     ...    0.000756775
RMS gradient                       ...    0.000100237
MAX gradient                       ...    0.000243361

-------
TIMINGS
-------

Total SCF gradient time            ...       52.980 sec

One electron gradient       ....       0.246 sec  (  0.5%)
Prescreening matrices       ....       0.880 sec  (  1.7%)
Two electron gradient       ....      21.939 sec  ( 41.4%)
XC gradient                 ....       2.915 sec  (  5.5%)
           ************************************************************
           *              Shut down parallel processing               *
           ************************************************************
------------------------------------------------------------------------------
                         ORCA GEOMETRY RELAXATION STEP
------------------------------------------------------------------------------

Reading the OPT-File                    .... done
Getting information on internals        .... done
Copying old internal coords+grads       .... done
Making the new internal coordinates     .... (new redundants).... done
Validating the new internal coordinates .... (new redundants).... done
Calculating the B-matrix                .... done
Calculating the G,G- and P matrices     .... done
Transforming gradient to internals      .... done
Projecting the internal gradient        .... done
Number of atoms                         ....  19
Number of internal coordinates          .... 104
Current Energy                          ....  -290.071715303 Eh
Current gradient norm                   ....     0.000756775 Eh/bohr
Maximum allowed component of the step   ....  0.300
Current trust radius                    ....  0.300
Evaluating the initial hessian          ....  (Almloef) done
Projecting the Hessian                  .... done
Forming the augmented Hessian           .... done
Diagonalizing the augmented Hessian     .... done
Last element of RFO vector              ....  0.999937768
Lowest eigenvalues of augmented Hessian:
 -0.000003109  0.013338165  0.014254228  0.014752647  0.025903016
Length of the computed step             ....  0.011156901
The final length of the internal step   ....  0.011156901
Converting the step to cartesian space:
 Initial RMS(Int)=    0.0010940242
Transforming coordinates:
 Iter   0:  RMS(Cart)=    0.0033536664 RMS(Int)=    0.0010940880
 Iter   1:  RMS(Cart)=    0.0000058309 RMS(Int)=    0.0000023563
 Iter   2:  RMS(Cart)=    0.0000000215 RMS(Int)=    0.0000000085
done
Storing new coordinates                 .... done

                                .--------------------.
          ----------------------|Geometry convergence|---------------------
          Item                value                 Tolerance   Converged
          -----------------------------------------------------------------
          RMS gradient        0.00006544            0.00003000      NO
          MAX gradient        0.00030488            0.00010000      NO
          RMS step            0.00109402            0.00060000      NO
          MAX step            0.00473120            0.00100000      NO
          ....................................................
          Max(Bonds)      0.0002      Max(Angles)    0.03
          Max(Dihed)        0.27      Max(Improp)    0.00
          -----------------------------------------------------------------

The optimization has not yet converged - more geometry cycles are needed


    ---------------------------------------------------------------------------
                         Redundant Internal Coordinates
                            (Angstroem and degrees)

        Definition                    Value    dE/dq     Step     New-Value
    ----------------------------------------------------------------------------
     1. B(C   1,C   0)                1.4950 -0.000067  0.0001    1.4951   
     2. B(C   2,C   1)                1.3283 -0.000305  0.0002    1.3285   
     3. B(C   3,C   2)                1.4810 -0.000059  0.0001    1.4811   
     4. B(C   4,C   3)                1.5006 -0.000178  0.0002    1.5008   
     5. B(C   5,C   4)                1.4880  0.000024  0.0000    1.4880   
     6. B(C   5,C   3)                1.4985  0.000005 -0.0000    1.4984   
     7. B(N   6,C   5)                1.4849  0.000028 -0.0000    1.4849   
     8. B(H   7,C   0)                1.0888 -0.000058  0.0001    1.0889   
     9. B(H   8,C   0)                1.0928  0.000058 -0.0001    1.0927   
    10. B(H   9,C   0)                1.0928  0.000030 -0.0000    1.0928   
    11. B(H  10,C   1)                1.0882  0.000093 -0.0001    1.0881   
    12. B(H  11,C   2)                1.0883  0.000084 -0.0001    1.0882   
    13. B(H  12,C   3)                1.0904 -0.000144  0.0002    1.0907   
    14. B(H  13,C   4)                1.0845  0.000017 -0.0000    1.0845   
    15. B(H  14,C   4)                1.0818 -0.000040  0.0001    1.0819   
    16. B(H  15,C   5)                1.0824  0.000016 -0.0000    1.0824   
    17. B(H  16,N   6)                1.0227  0.000150 -0.0002    1.0225   
    18. B(H  17,N   6)                1.0235  0.000099 -0.0001    1.0233   
    19. B(H  18,N   6)                1.0239  0.000140 -0.0002    1.0237   
    20. A(C   1,C   0,H   8)          111.36  0.000058   -0.01    111.35   
    21. A(H   8,C   0,H   9)          107.21 -0.000075    0.02    107.22   
    22. A(H   7,C   0,H   8)          107.80 -0.000008   -0.00    107.80   
    23. A(C   1,C   0,H   9)          111.07  0.000072   -0.01    111.06   
    24. A(C   1,C   0,H   7)          111.47 -0.000016    0.00    111.47   
    25. A(H   7,C   0,H   9)          107.74 -0.000038    0.01    107.75   
    26. A(C   0,C   1,H  10)          116.83  0.000016   -0.00    116.82   
    27. A(C   2,C   1,H  10)          118.35 -0.000126    0.02    118.37   
    28. A(C   0,C   1,C   2)          124.81  0.000111   -0.02    124.80   
    29. A(C   3,C   2,H  11)          115.57  0.000020   -0.00    115.56   
    30. A(C   1,C   2,C   3)          124.41 -0.000079    0.01    124.42   
    31. A(C   1,C   2,H  11)          120.00  0.000060   -0.01    119.99   
    32. A(C   2,C   3,C   4)          122.82 -0.000105    0.02    122.84   
    33. A(C   5,C   3,H  12)          114.44  0.000035   -0.02    114.42   
    34. A(C   4,C   3,C   5)           59.49  0.000045   -0.00     59.49   
    35. A(C   4,C   3,H  12)          114.38  0.000034   -0.01    114.37   
    36. A(C   2,C   3,H  12)          114.85  0.000071   -0.02    114.83   
    37. A(C   2,C   3,C   5)          119.65 -0.000105    0.03    119.68   
    38. A(H  13,C   4,H  14)          114.18  0.000030   -0.01    114.18   
    39. A(C   5,C   4,H  14)          116.29 -0.000049   -0.01    116.28   
    40. A(C   3,C   4,H  14)          119.27 -0.000083    0.03    119.31   
    41. A(C   5,C   4,H  13)          118.79  0.000026   -0.00    118.79   
    42. A(C   3,C   4,C   5)           60.18  0.000034   -0.01     60.18   
    43. A(C   3,C   4,H  13)          117.77  0.000036   -0.01    117.76   
    44. A(C   3,C   5,C   4)           60.33 -0.000079    0.01     60.34   
    45. A(C   4,C   5,H  15)          120.46 -0.000020    0.01    120.47   
    46. A(C   3,C   5,H  15)          119.93 -0.000013    0.00    119.93   
    47. A(C   4,C   5,N   6)          118.06  0.000114   -0.02    118.04   
    48. A(N   6,C   5,H  15)          111.05 -0.000086    0.02    111.07   
    49. A(C   3,C   5,N   6)          118.75  0.000113   -0.02    118.72   
    50. A(C   5,N   6,H  16)          110.73  0.000006   -0.00    110.73   
    51. A(H  17,N   6,H  18)          108.03  0.000017   -0.00    108.03   
    52. A(H  16,N   6,H  18)          107.44  0.000006    0.00    107.44   
    53. A(C   5,N   6,H  18)          111.58 -0.000046    0.01    111.59   
    54. A(H  16,N   6,H  17)          107.46  0.000013   -0.01    107.46   
    55. A(C   5,N   6,H  17)          111.42  0.000007   -0.00    111.41   
    56. D(C   2,C   1,C   0,H   7)   -179.76  0.000016   -0.07   -179.83   
    57. D(H  10,C   1,C   0,H   7)     -0.73  0.000049   -0.14     -0.87   
    58. D(C   2,C   1,C   0,H   9)    -59.60  0.000006   -0.06    -59.66   
    59. D(H  10,C   1,C   0,H   8)   -121.16  0.000031   -0.13   -121.29   
    60. D(C   2,C   1,C   0,H   8)     59.80 -0.000003   -0.06     59.75   
    61. D(H  10,C   1,C   0,H   9)    119.43  0.000039   -0.14    119.29   
    62. D(H  11,C   2,C   1,C   0)      0.94  0.000007   -0.01      0.93   
    63. D(H  11,C   2,C   1,H  10)   -178.08 -0.000028    0.07   -178.01   
    64. D(C   3,C   2,C   1,H  10)      0.21  0.000009   -0.01      0.20   
    65. D(C   3,C   2,C   1,C   0)    179.23  0.000045   -0.09    179.14   
    66. D(C   5,C   3,C   2,H  11)    -85.67 -0.000056    0.19    -85.48   
    67. D(C   5,C   3,C   2,C   1)     95.97 -0.000093    0.27     96.24   
    68. D(H  12,C   3,C   2,C   1)   -122.01 -0.000075    0.26   -121.75   
    69. D(C   4,C   3,C   2,H  11)   -156.52 -0.000022    0.17   -156.35   
    70. D(C   4,C   3,C   2,C   1)     25.12 -0.000058    0.25     25.37   
    71. D(H  12,C   3,C   2,H  11)     56.35 -0.000038    0.18     56.53   
    72. D(H  14,C   4,C   3,H  12)    149.61 -0.000030    0.05    149.66   
    73. D(H  14,C   4,C   3,C   2)      2.34 -0.000058    0.06      2.40   
    74. D(H  13,C   4,C   3,H  12)      3.92 -0.000011    0.02      3.94   
    75. D(H  13,C   4,C   3,C   5)    109.00  0.000028    0.00    109.01   
    76. D(H  13,C   4,C   3,C   2)   -143.35 -0.000039    0.03   -143.32   
    77. D(H  14,C   4,C   3,C   5)   -105.30  0.000009    0.03   -105.28   
    78. D(C   5,C   4,C   3,H  12)   -105.09 -0.000039    0.02   -105.06   
    79. D(C   5,C   4,C   3,C   2)    107.65 -0.000066    0.03    107.68   
    80. D(H  15,C   5,C   3,C   2)     -2.66  0.000019    0.00     -2.66   
    81. D(N   6,C   5,C   3,H  12)     -2.78 -0.000021    0.01     -2.76   
    82. D(N   6,C   5,C   3,C   4)   -107.75 -0.000059    0.01   -107.74   
    83. D(N   6,C   5,C   3,C   2)    139.39  0.000010   -0.00    139.39   
    84. D(C   4,C   5,C   3,H  12)    104.98  0.000038   -0.00    104.98   
    85. D(H  15,C   5,C   3,C   4)    110.19 -0.000051    0.02    110.21   
    86. D(C   4,C   5,C   3,C   2)   -112.86  0.000070   -0.01   -112.87   
    87. D(H  15,C   5,C   4,H  14)      0.88 -0.000026    0.04      0.91   
    88. D(H  15,C   5,C   4,C   3)   -109.34  0.000042   -0.00   -109.34   
    89. D(N   6,C   5,C   4,H  14)   -140.91 -0.000008    0.02   -140.88   
    90. D(N   6,C   5,C   4,H  13)      1.55  0.000012    0.00      1.55   
    91. D(N   6,C   5,C   4,C   3)    108.88  0.000060   -0.02    108.86   
    92. D(C   3,C   5,C   4,H  14)    110.21 -0.000068    0.04    110.25   
    93. D(H  15,C   5,C   4,H  13)    143.33 -0.000005    0.01    143.35   
    94. D(C   3,C   5,C   4,H  13)   -107.33 -0.000047    0.02   -107.31   
    95. D(H  15,C   5,C   3,H  12)   -144.83 -0.000013    0.02   -144.81   
    96. D(H  18,N   6,C   5,H  15)    -62.65  0.000001   -0.01    -62.66   
    97. D(H  18,N   6,C   5,C   4)     82.50  0.000000   -0.00     82.50   
    98. D(H  18,N   6,C   5,C   3)    152.17 -0.000009   -0.01    152.17   
    99. D(H  17,N   6,C   5,H  15)     58.19 -0.000004   -0.01     58.18   
   100. D(H  17,N   6,C   5,C   4)   -156.66 -0.000005    0.00   -156.66   
   101. D(H  17,N   6,C   5,C   3)    -86.99 -0.000014   -0.00    -86.99   
   102. D(H  16,N   6,C   5,H  15)    177.74  0.000020   -0.02    177.71   
   103. D(H  16,N   6,C   5,C   4)    -37.11  0.000020   -0.01    -37.12   
   104. D(H  16,N   6,C   5,C   3)     32.56  0.000010   -0.02     32.54   
    ----------------------------------------------------------------------------

         *************************************************************
         *                GEOMETRY OPTIMIZATION CYCLE   2            *
         *************************************************************
---------------------------------
CARTESIAN COORDINATES (ANGSTROEM)
---------------------------------
  C      0.897279    0.001552   -3.236109
  C      0.121021   -0.048968   -1.959346
  C      0.462080    0.578872   -0.839387
  C     -0.322955    0.537728    0.415867
  C     -1.245133   -0.594518    0.762367
  C      0.044347   -0.441530    1.488917
  N     -0.000962    0.001661    2.905389
  H      0.420228   -0.589567   -4.016336
  H      1.911663   -0.381192   -3.100254
  H      0.984900    1.027511   -3.602049
  H     -0.797030   -0.632975   -1.965683
  H      1.357671    1.196498   -0.813086
  H     -0.646938    1.511330    0.785540
  H     -2.167704   -0.354448    1.279428
  H     -1.319945   -1.440611    0.092295
  H      0.852497   -1.142987    1.326381
  H     -0.741917    0.692387    3.044986
  H      0.881061    0.435974    3.189372
  H     -0.187371   -0.780501    3.538959

----------------------------
CARTESIAN COORDINATES (A.U.)
----------------------------
  NO LB      ZA    FRAG    MASS        X           Y           Z
   0 C     6.0000    0    12.011          1.695611003713494          0.002932561401305         -6.115359730146126
   1 C     6.0000    0    12.011          0.228696083410378         -0.092536037961531         -3.702627767524504
   2 C     6.0000    0    12.011          0.873204238745160          1.093908969523814         -1.586212197441885
   3 C     6.0000    0    12.011         -0.610297279796308          1.016159207167137          0.785875333225246
   4 C     6.0000    0    12.011         -2.352959429004117         -1.123476288577651          1.440664282519065
   5 C     6.0000    0    12.011          0.083804523656298         -0.834370954987166          2.813646192896369
   6 N     7.0000    0    14.007         -0.001818262531498          0.003138921733818          5.490390108411042
   7 H     1.0000    0     1.008          0.794115626608782         -1.114120409344834         -7.589774290122745
   8 H     1.0000    0     1.008          3.612520330688290         -0.720349351634734         -5.858631383201499
   9 H     1.0000    0     1.008          1.861191135653965          1.941714294864735         -6.806885221405448
  10 H     1.0000    0     1.008         -1.506169110384650         -1.196149855016612         -3.714601636221382
  11 H     1.0000    0     1.008          2.565626785567918          2.261052828796525         -1.536510660888812
  12 H     1.0000    0     1.008         -1.222535662725950          2.856000697122121          1.484455841659712
  13 H     1.0000    0     1.008         -4.096366596061945         -0.669810175579516          2.417769345694557
  14 H     1.0000    0     1.008         -2.494334699165304         -2.722360129110616          0.174413001429091
  15 H     1.0000    0     1.008          1.610986538596662         -2.159932661898379          2.506496293653581
  16 H     1.0000    0     1.008         -1.402020190116405          1.308420877294052          5.754190488649335
  17 H     1.0000    0     1.008          1.664964682417893          0.823870618582272          6.027039100048663
  18 H     1.0000    0     1.008         -0.354079420372809         -1.474932219815056          6.687663396654095

--------------------------------
INTERNAL COORDINATES (ANGSTROEM)
--------------------------------
 C      0   0   0   0.000000     0.000     0.000
 C      1   0   0   1.495076     0.000     0.000
 C      2   1   0   1.328462   124.798     0.000
 C      3   2   1   1.481093   124.423   179.141
 C      4   3   2   1.500818   122.841    25.370
 C      5   4   3   1.487965    60.177   107.678
 N      6   5   4   1.484878   118.037   108.863
 H      1   2   3   1.088923   111.474   180.170
 H      1   2   3   1.092669   111.346    59.747
 H      1   2   3   1.092786   111.059   300.335
 H      2   1   3   1.088082   116.823   178.958
 H      3   2   1   1.088227   119.993     0.930
 H      4   3   2   1.090653   114.829   238.245
 H      5   4   3   1.084493   117.761   216.683
 H      5   4   3   1.081881   119.307     2.402
 H      6   5   4   1.082389   120.470   250.658
 H      7   6   5   1.022547   110.729   322.878
 H      7   6   5   1.023347   111.413   203.343
 H      7   6   5   1.023687   111.586    82.503

---------------------------
INTERNAL COORDINATES (A.U.)
---------------------------
 C      0   0   0   0.000000     0.000     0.000
 C      1   0   0   2.825284     0.000     0.000
 C      2   1   0   2.510430   124.798     0.000
 C      3   2   1   2.798861   124.423   179.141
 C      4   3   2   2.836135   122.841    25.370
 C      5   4   3   2.811846    60.177   107.678
 N      6   5   4   2.806014   118.037   108.863
 H      1   2   3   2.057766   111.474   180.170
 H      1   2   3   2.064846   111.346    59.747
 H      1   2   3   2.065066   111.059   300.335
 H      2   1   3   2.056177   116.823   178.958
 H      3   2   1   2.056451   119.993     0.930
 H      4   3   2   2.061035   114.829   238.245
 H      5   4   3   2.049394   117.761   216.683
 H      5   4   3   2.044458   119.307     2.402
 H      6   5   4   2.045419   120.470   250.658
 H      7   6   5   1.932335   110.729   322.878
 H      7   6   5   1.933845   111.413   203.343
 H      7   6   5   1.934488   111.586    82.503



           ************************************************************
           *        Program running with 8 parallel MPI-processes     *
           *              working on a common directory               *
           ************************************************************
           ************************************************************
           *              Shut down parallel processing               *
           ************************************************************


           ************************************************************
           *        Program running with 8 parallel MPI-processes     *
           *              working on a common directory               *
           ************************************************************

Diagonalization of the overlap matrix:
Smallest eigenvalue                        ... 1.160e-04
Time for diagonalization                   ...    0.305 sec
Threshold for overlap eigenvalues          ... 1.000e-08
Number of eigenvalues below threshold      ... 0
Time for construction of square roots      ...    0.068 sec
Total time needed                          ...    0.373 sec

-------------------
DFT GRID GENERATION
-------------------

General Integration Accuracy     IntAcc      ...  4.340
Radial Grid Type                 RadialGrid  ... Gauss-Chebyshev
Angular Grid (max. acc.)         AngularGrid ... Lebedev-194
Angular grid pruning method      GridPruning ... 3 (G Style)
Weight generation scheme         WeightScheme... Becke
Basis function cutoff            BFCut       ...    1.0000e-11
Integration weight cutoff        WCut        ...    1.0000e-14
Grids for H and He will be reduced by one unit

# of grid points (after initial pruning)     ...  41338 (   0.0 sec)
# of grid points (after weights+screening)   ...  37953 (   0.1 sec)
nearest neighbour list constructed           ...    0.0 sec
Grid point re-assignment to atoms done       ...    0.0 sec
Grid point division into batches done        ...    0.1 sec
Reduced shell lists constructed in    0.1 sec

Total number of grid points                  ...    37953
Total number of batches                      ...      602
Average number of points per batch           ...       63
Average number of grid points per atom       ...     1998
Average number of shells per batch           ...    90.17 (72.14%)
Average number of basis functions per batch  ...   214.09 (74.08%)
Average number of large shells per batch     ...    72.61 (80.53%)
Average number of large basis fcns per batch ...   172.56 (80.60%)
Maximum spatial batch extension              ...   4.40,  3.93,  2.93 au
Average spatial batch extension              ...   0.18,  0.18,  0.17 au

Time for grid setup =    0.344 sec

--------------
SCF ITERATIONS
--------------
ITER       Energy         Delta-E        Max-DP      RMS-DP      [F,P]     Damp
               ***  Starting incremental Fock matrix formation  ***
                      *** Initiating the SOSCF procedure ***
                      *** Re-Reading the Fockian *** 
                      *** Removing any level shift *** 
ITER      Energy       Delta-E        Grad      Rot      Max-DP    RMS-DP
  0   -290.07228724 -290.0722872402  0.000397  0.000397  0.000566  0.000012
               *** Restarting incremental Fock matrix formation ***
  1   -290.07229640  -0.0000091642  0.000152  0.000372  0.000241  0.000006
  2   -290.07229762  -0.0000012178  0.000028  0.000119  0.000067  0.000002
  3   -290.07229763  -0.0000000092  0.000037  0.000019  0.000037  0.000001
  4   -290.07229768  -0.0000000447  0.000005  0.000017  0.000012  0.000000
  5   -290.07229768   0.0000000004  0.000007  0.000011  0.000008  0.000000
                  ***Gradient check signals convergence***
              ***Rediagonalizing the Fockian in SOSCF/NRSCF***

               *****************************************************
               *                     SUCCESS                       *
               *           SCF CONVERGED AFTER   6 CYCLES          *
               *****************************************************

Setting up the final grid:

General Integration Accuracy     IntAcc      ...  5.010
Radial Grid Type                 RadialGrid  ... Gauss-Chebyshev
Angular Grid (max. acc.)         AngularGrid ... Lebedev-434
Angular grid pruning method      GridPruning ... 3 (G Style)
Weight generation scheme         WeightScheme... Becke
Basis function cutoff            BFCut       ...    1.0000e-11
Integration weight cutoff        WCut        ...    1.0000e-14
Grids for H and He will be reduced by one unit

# of grid points (after initial pruning)     ... 155082 (   0.0 sec)
# of grid points (after weights+screening)   ... 140709 (   4.6 sec)
nearest neighbour list constructed           ...    0.0 sec
Grid point re-assignment to atoms done       ...    0.1 sec
Grid point division into batches done        ...    1.7 sec
Reduced shell lists constructed in    2.2 sec

Total number of grid points                  ...   140709
Total number of batches                      ...     2209
Average number of points per batch           ...       63
Average number of grid points per atom       ...     7406
Average number of shells per batch           ...    89.73 (71.78%)
Average number of basis functions per batch  ...   213.50 (73.88%)
Average number of large shells per batch     ...    71.17 (79.31%)
Average number of large basis fcns per batch ...   169.71 (79.49%)
Maximum spatial batch extension              ...   3.22,  5.11,  2.82 au
Average spatial batch extension              ...   0.11,  0.12,  0.11 au

Final grid set up in    7.3 sec
Final integration                            ... done (   1.4 sec)
Change in XC energy                          ...     0.000580030
Integrated number of electrons               ...    54.000027740
Previous integrated no of electrons          ...    54.001274959
Total Energy       :         -290.07171765 Eh           -7893.25272 eV
  Last Energy change         ...   -1.0980e-09  Tolerance :   1.0000e-08
  Last MAX-Density change    ...    3.8900e-06  Tolerance :   1.0000e-07
             **** THE GBW FILE WAS UPDATED (2025_+.gbw) ****
             **** DENSITY FILE WAS UPDATED (2025_+.scfp.tmp) ****
             **** ENERGY FILE WAS UPDATED (2025_+.en.tmp) ****
Total SCF time: 0 days 0 hours 1 min 1 sec 
           ************************************************************
           *              Shut down parallel processing               *
           ************************************************************

-------------------------   --------------------
FINAL SINGLE POINT ENERGY      -290.071717646836
-------------------------   --------------------



           ************************************************************
           *        Program running with 8 parallel MPI-processes     *
           *              working on a common directory               *
           ************************************************************
------------------------------------------------------------------------------
                         ORCA SCF GRADIENT CALCULATION
------------------------------------------------------------------------------

Gradient of the Kohn-Sham DFT energy:
Kohn-Sham wavefunction type      ... RKS
Hartree-Fock exchange scaling    ...    0.250
Number of operators              ...    1
Number of atoms                  ...   19
Basis set dimensions             ...  289
Integral neglect threshold       ... 2.5e-11
Integral primitive cutoff        ... 2.5e-12

Nuclear repulsion gradient       ... done
One Electron Gradient            ... done
Pre-screening matrix             ... done
Starting the two electron gradient:
Two electron gradient done
Exchange-correlation gradient    ... done

------------------
CARTESIAN GRADIENT
------------------

   1   C   :   -0.000086196   -0.000037828    0.000075648
   2   C   :    0.000149659   -0.000016909   -0.000005448
   3   C   :   -0.000082009   -0.000096350   -0.000083585
   4   C   :   -0.000098438    0.000076042    0.000065545
   5   C   :    0.000013531    0.000046715   -0.000017115
   6   C   :   -0.000052862   -0.000002224    0.000009896
   7   N   :    0.000065764   -0.000004095    0.000023458
   8   H   :   -0.000013976    0.000031832   -0.000015002
   9   H   :    0.000009284   -0.000002346   -0.000027059
  10   H   :    0.000056683   -0.000005456   -0.000014613
  11   H   :    0.000011174   -0.000014564    0.000024710
  12   H   :   -0.000046470    0.000064462   -0.000002411
  13   H   :    0.000055970   -0.000007488   -0.000002466
  14   H   :   -0.000000925   -0.000021024   -0.000000137
  15   H   :    0.000037125    0.000023846   -0.000020538
  16   H   :   -0.000001553   -0.000004177   -0.000003090
  17   H   :   -0.000005825   -0.000019099    0.000013972
  18   H   :   -0.000007068   -0.000007663   -0.000007947
  19   H   :   -0.000003868   -0.000003677   -0.000013816

Norm of the cartesian gradient     ...    0.000332432
RMS gradient                       ...    0.000044032
MAX gradient                       ...    0.000149659

-------
TIMINGS
-------

Total SCF gradient time            ...       33.334 sec

One electron gradient       ....       0.233 sec  (  0.7%)
Prescreening matrices       ....       0.291 sec  (  0.9%)
Two electron gradient       ....      21.835 sec  ( 65.5%)
XC gradient                 ....       2.956 sec  (  8.9%)
           ************************************************************
           *              Shut down parallel processing               *
           ************************************************************
------------------------------------------------------------------------------
                         ORCA GEOMETRY RELAXATION STEP
------------------------------------------------------------------------------

Reading the OPT-File                    .... done
Getting information on internals        .... done
Copying old internal coords+grads       .... done
Making the new internal coordinates     .... (new redundants).... done
Validating the new internal coordinates .... (new redundants).... done
Calculating the B-matrix                .... done
Calculating the G,G- and P matrices     .... done
Transforming gradient to internals      .... done
Projecting the internal gradient        .... done
Number of atoms                         ....  19
Number of internal coordinates          .... 104
Current Energy                          ....  -290.071717647 Eh
Current gradient norm                   ....     0.000332432 Eh/bohr
Maximum allowed component of the step   ....  0.300
Current trust radius                    ....  0.300
Updating the Hessian (BFGS)             .... done
Forming the augmented Hessian           .... done
Diagonalizing the augmented Hessian     .... done
Last element of RFO vector              ....  0.999607671
Lowest eigenvalues of augmented Hessian:
 -0.000004536  0.005366569  0.013973153  0.014263872  0.026520667
Length of the computed step             ....  0.028020011
The final length of the internal step   ....  0.028020011
Converting the step to cartesian space:
 Initial RMS(Int)=    0.0027475881
Transforming coordinates:
 Iter   0:  RMS(Cart)=    0.0069775868 RMS(Int)=    0.6155667090
 Iter   1:  RMS(Cart)=    0.0000266005 RMS(Int)=    0.0000109552
 Iter   2:  RMS(Cart)=    0.0000002210 RMS(Int)=    0.0000000910
 Iter   3:  RMS(Cart)=    0.0000000020 RMS(Int)=    0.0000000006
done
Storing new coordinates                 .... done

                                .--------------------.
          ----------------------|Geometry convergence|---------------------
          Item                value                 Tolerance   Converged
          -----------------------------------------------------------------
          Energy change      -0.00000234            0.00000100      NO
          RMS gradient        0.00002948            0.00003000      YES
          MAX gradient        0.00007821            0.00010000      YES
          RMS step            0.00274759            0.00060000      NO
          MAX step            0.01059810            0.00100000      NO
          ....................................................
          Max(Bonds)      0.0003      Max(Angles)    0.08
          Max(Dihed)        0.61      Max(Improp)    0.00
          -----------------------------------------------------------------

The optimization has not yet converged - more geometry cycles are needed


    ---------------------------------------------------------------------------
                         Redundant Internal Coordinates
                            (Angstroem and degrees)

        Definition                    Value    dE/dq     Step     New-Value
    ----------------------------------------------------------------------------
     1. B(C   1,C   0)                1.4951 -0.000034  0.0002    1.4952   
     2. B(C   2,C   1)                1.3285 -0.000044  0.0002    1.3287   
     3. B(C   3,C   2)                1.4811  0.000039 -0.0001    1.4810   
     4. B(C   4,C   3)                1.5008 -0.000068  0.0003    1.5011   
     5. B(C   5,C   4)                1.4880  0.000010  0.0001    1.4880   
     6. B(C   5,C   3)                1.4984  0.000022 -0.0001    1.4983   
     7. B(N   6,C   5)                1.4849  0.000003 -0.0000    1.4848   
     8. B(H   7,C   0)                1.0889 -0.000001  0.0001    1.0890   
     9. B(H   8,C   0)                1.0927  0.000007 -0.0001    1.0926   
    10. B(H   9,C   0)                1.0928  0.000004 -0.0000    1.0927   
    11. B(H  10,C   1)                1.0881 -0.000002 -0.0001    1.0880   
    12. B(H  11,C   2)                1.0882 -0.000001 -0.0001    1.0881   
    13. B(H  12,C   3)                1.0907 -0.000024  0.0002    1.0909   
    14. B(H  13,C   4)                1.0845 -0.000003 -0.0000    1.0845   
    15. B(H  14,C   4)                1.0819 -0.000009  0.0001    1.0819   
    16. B(H  15,C   5)                1.0824  0.000002 -0.0000    1.0824   
    17. B(H  16,N   6)                1.0225 -0.000007 -0.0001    1.0224   
    18. B(H  17,N   6)                1.0233 -0.000012 -0.0001    1.0233   
    19. B(H  18,N   6)                1.0237 -0.000005 -0.0001    1.0236   
    20. A(C   1,C   0,H   8)          111.35  0.000027   -0.02    111.33   
    21. A(H   8,C   0,H   9)          107.22 -0.000048    0.04    107.26   
    22. A(H   7,C   0,H   8)          107.80 -0.000008   -0.00    107.80   
    23. A(C   1,C   0,H   9)          111.06  0.000051   -0.03    111.03   
    24. A(C   1,C   0,H   7)          111.47 -0.000002   -0.00    111.47   
    25. A(H   7,C   0,H   9)          107.75 -0.000025    0.02    107.76   
    26. A(C   0,C   1,H  10)          116.82 -0.000020    0.00    116.83   
    27. A(C   2,C   1,H  10)          118.37 -0.000059    0.03    118.40   
    28. A(C   0,C   1,C   2)          124.80  0.000078   -0.04    124.76   
    29. A(C   3,C   2,H  11)          115.56 -0.000044    0.01    115.58   
    30. A(C   1,C   2,C   3)          124.42  0.000044   -0.01    124.41   
    31. A(C   1,C   2,H  11)          119.99  0.000001   -0.01    119.98   
    32. A(C   2,C   3,C   4)          122.84 -0.000053    0.04    122.88   
    33. A(C   5,C   3,H  12)          114.42  0.000028   -0.04    114.39   
    34. A(C   4,C   3,C   5)           59.49  0.000013   -0.00     59.48   
    35. A(C   4,C   3,H  12)          114.37  0.000030   -0.03    114.34   
    36. A(C   2,C   3,H  12)          114.83  0.000030   -0.03    114.80   
    37. A(C   2,C   3,C   5)          119.68 -0.000062    0.08    119.76   
    38. A(H  13,C   4,H  14)          114.18  0.000015   -0.01    114.17   
    39. A(C   5,C   4,H  14)          116.28 -0.000038    0.00    116.28   
    40. A(C   3,C   4,H  14)          119.31 -0.000045    0.05    119.36   
    41. A(C   5,C   4,H  13)          118.79  0.000021   -0.01    118.79   
    42. A(C   3,C   4,C   5)           60.18  0.000021   -0.01     60.16   
    43. A(C   3,C   4,H  13)          117.76  0.000024   -0.03    117.73   
    44. A(C   3,C   5,C   4)           60.34 -0.000035    0.01     60.35   
    45. A(C   4,C   5,H  15)          120.47 -0.000015    0.02    120.49   
    46. A(C   3,C   5,H  15)          119.93 -0.000016    0.02    119.95   
    47. A(C   4,C   5,N   6)          118.04  0.000059   -0.04    118.00   
    48. A(N   6,C   5,H  15)          111.07 -0.000043    0.03    111.10   
    49. A(C   3,C   5,N   6)          118.72  0.000066   -0.06    118.66   
    50. A(C   5,N   6,H  16)          110.73  0.000020   -0.01    110.72   
    51. A(H  17,N   6,H  18)          108.03  0.000011   -0.00    108.02   
    52. A(H  16,N   6,H  18)          107.44 -0.000005    0.01    107.45   
    53. A(C   5,N   6,H  18)          111.59 -0.000024    0.02    111.61   
    54. A(H  16,N   6,H  17)          107.46  0.000003   -0.01    107.44   
    55. A(C   5,N   6,H  17)          111.41 -0.000004   -0.00    111.41   
    56. D(C   2,C   1,C   0,H   7)   -179.83  0.000030   -0.33   -180.16   
    57. D(H  10,C   1,C   0,H   7)     -0.87  0.000028   -0.37     -1.24   
    58. D(C   2,C   1,C   0,H   9)    -59.66  0.000031   -0.32    -59.99   
    59. D(H  10,C   1,C   0,H   8)   -121.29  0.000021   -0.36   -121.65   
    60. D(C   2,C   1,C   0,H   8)     59.75  0.000023   -0.31     59.44   
    61. D(H  10,C   1,C   0,H   9)    119.29  0.000030   -0.37    118.92   
    62. D(H  11,C   2,C   1,C   0)      0.93  0.000012   -0.03      0.90   
    63. D(H  11,C   2,C   1,H  10)   -178.01  0.000013    0.02   -178.00   
    64. D(C   3,C   2,C   1,H  10)      0.20  0.000022   -0.09      0.11   
    65. D(C   3,C   2,C   1,C   0)    179.14  0.000021   -0.13    179.01   
    66. D(C   5,C   3,C   2,H  11)    -85.48 -0.000051    0.51    -84.97   
    67. D(C   5,C   3,C   2,C   1)     96.24 -0.000061    0.61     96.84   
    68. D(H  12,C   3,C   2,C   1)   -121.75 -0.000053    0.61   -121.15   
    69. D(C   4,C   3,C   2,H  11)   -156.35 -0.000018    0.45   -155.89   
    70. D(C   4,C   3,C   2,C   1)     25.37 -0.000028    0.55     25.92   
    71. D(H  12,C   3,C   2,H  11)     56.53 -0.000043    0.51     57.04   
    72. D(H  14,C   4,C   3,H  12)    149.66 -0.000006    0.06    149.72   
    73. D(H  14,C   4,C   3,C   2)      2.40 -0.000032    0.11      2.51   
    74. D(H  13,C   4,C   3,H  12)      3.94 -0.000001    0.03      3.97   
    75. D(H  13,C   4,C   3,C   5)    109.01  0.000022   -0.00    109.00   
    76. D(H  13,C   4,C   3,C   2)   -143.32 -0.000027    0.08   -143.23   
    77. D(H  14,C   4,C   3,C   5)   -105.28  0.000017    0.03   -105.25   
    78. D(C   5,C   4,C   3,H  12)   -105.06 -0.000023    0.03   -105.03   
    79. D(C   5,C   4,C   3,C   2)    107.68 -0.000049    0.08    107.76   
    80. D(H  15,C   5,C   3,C   2)     -2.66  0.000009    0.01     -2.65   
    81. D(N   6,C   5,C   3,H  12)     -2.76 -0.000004   -0.00     -2.76   
    82. D(N   6,C   5,C   3,C   4)   -107.74 -0.000031    0.02   -107.72   
    83. D(N   6,C   5,C   3,C   2)    139.39  0.000005    0.00    139.39   
    84. D(C   4,C   5,C   3,H  12)    104.98  0.000027   -0.02    104.96   
    85. D(H  15,C   5,C   3,C   4)    110.21 -0.000026    0.02    110.23   
    86. D(C   4,C   5,C   3,C   2)   -112.87  0.000035   -0.02   -112.89   
    87. D(H  15,C   5,C   4,H  14)      0.91 -0.000003    0.04      0.95   
    88. D(H  15,C   5,C   4,C   3)   -109.34  0.000028   -0.02   -109.36   
    89. D(N   6,C   5,C   4,H  14)   -140.88  0.000010    0.01   -140.88   
    90. D(N   6,C   5,C   4,H  13)      1.55  0.000012   -0.02      1.53   
    91. D(N   6,C   5,C   4,C   3)    108.86  0.000042   -0.05    108.81   
    92. D(C   3,C   5,C   4,H  14)    110.25 -0.000031    0.06    110.31   
    93. D(H  15,C   5,C   4,H  13)    143.35 -0.000001    0.02    143.36   
    94. D(C   3,C   5,C   4,H  13)   -107.31 -0.000029    0.04   -107.28   
    95. D(H  15,C   5,C   3,H  12)   -144.81  0.000000    0.01   -144.81   
    96. D(H  18,N   6,C   5,H  15)    -62.66  0.000004   -0.04    -62.70   
    97. D(H  18,N   6,C   5,C   4)     82.50 -0.000003   -0.01     82.49   
    98. D(H  18,N   6,C   5,C   3)    152.17  0.000002   -0.03    152.14   
    99. D(H  17,N   6,C   5,H  15)     58.18 -0.000001   -0.03     58.15   
   100. D(H  17,N   6,C   5,C   4)   -156.66 -0.000008   -0.00   -156.66   
   101. D(H  17,N   6,C   5,C   3)    -86.99 -0.000003   -0.02    -87.01   
   102. D(H  16,N   6,C   5,H  15)    177.71  0.000013   -0.06    177.66   
   103. D(H  16,N   6,C   5,C   4)    -37.12  0.000006   -0.03    -37.15   
   104. D(H  16,N   6,C   5,C   3)     32.54  0.000011   -0.05     32.49   
    ----------------------------------------------------------------------------

         *************************************************************
         *                GEOMETRY OPTIMIZATION CYCLE   3            *
         *************************************************************
---------------------------------
CARTESIAN COORDINATES (ANGSTROEM)
---------------------------------
  C      0.895902    0.004797   -3.238592
  C      0.119585   -0.047474   -1.961753
  C      0.465283    0.573324   -0.839044
  C     -0.320589    0.533350    0.415655
  C     -1.243114   -0.598527    0.763739
  C      0.045366   -0.443015    1.491634
  N     -0.003006    0.005063    2.906431
  H      0.418232   -0.584401   -4.019977
  H      1.909711   -0.379417   -3.103250
  H      0.984189    1.031515   -3.602100
  H     -0.802147   -0.625456   -1.970837
  H      1.364789    1.185000   -0.810658
  H     -0.645688    1.507675    0.783112
  H     -2.166384   -0.356946    1.278834
  H     -1.317039   -1.447024    0.096503
  H      0.854153   -1.144492    1.332539
  H     -0.744083    0.696333    3.041797
  H      0.878303    0.440516    3.190701
  H     -0.190670   -0.774607    3.542518

----------------------------
CARTESIAN COORDINATES (A.U.)
----------------------------
  NO LB      ZA    FRAG    MASS        X           Y           Z
   0 C     6.0000    0    12.011          1.693010202249604          0.009064177685136         -6.120052469855334
   1 C     6.0000    0    12.011          0.225982323384811         -0.089712413425015         -3.707176532222968
   2 C     6.0000    0    12.011          0.879258206875351          1.083426228045069         -1.585562806360782
   3 C     6.0000    0    12.011         -0.605825960348904          1.007884815449214          0.785474790216790
   4 C     6.0000    0    12.011         -2.349144331021487         -1.131052225209729          1.443257993031793
   5 C     6.0000    0    12.011          0.085729378967884         -0.837176297362419          2.818780179932789
   6 N     7.0000    0    14.007         -0.005680787835601          0.009566862022229          5.492358851102312
   7 H     1.0000    0     1.008          0.790344346545357         -1.104356910119428         -7.596655420611238
   8 H     1.0000    0     1.008          3.608830417351121         -0.716995038266410         -5.864292724525956
   9 H     1.0000    0     1.008          1.859847740309448          1.949279928042390         -6.806981848683854
  10 H     1.0000    0     1.008         -1.515837358818664         -1.181941064015253         -3.724342930291783
  11 H     1.0000    0     1.008          2.579077617428182          2.239326096907665         -1.531921981154991
  12 H     1.0000    0     1.008         -1.220174412036296          2.849092439038205          1.479867882673548
  13 H     1.0000    0     1.008         -4.093872595888620         -0.674529778921459          2.416645272011034
  14 H     1.0000    0     1.008         -2.488843399344923         -2.734478361260082          0.182364290622645
  15 H     1.0000    0     1.008          1.614115761737720         -2.162776282950329          2.518133334865188
  16 H     1.0000    0     1.008         -1.406113885660248          1.315879106811294          5.748164192491983
  17 H     1.0000    0     1.008          1.659751427967583          0.832455062389272          6.029550696808964
  18 H     1.0000    0     1.008         -0.360314392962471         -1.463795452300667          6.694389727838217

--------------------------------
INTERNAL COORDINATES (ANGSTROEM)
--------------------------------
 C      0   0   0   0.000000     0.000     0.000
 C      1   0   0   1.495232     0.000     0.000
 C      2   1   0   1.328674   124.760     0.000
 C      3   2   1   1.481035   124.415   179.007
 C      4   3   2   1.501119   122.881    25.923
 C      5   4   3   1.488017    60.164   107.761
 N      6   5   4   1.484845   117.997   108.811
 H      1   2   3   1.088983   111.474   179.845
 H      1   2   3   1.092587   111.327    59.436
 H      1   2   3   1.092741   111.030   300.011
 H      2   1   3   1.087996   116.827   178.914
 H      3   2   1   1.088147   119.984     0.900
 H      4   3   2   1.090882   114.796   238.853
 H      5   4   3   1.084487   117.734   216.766
 H      5   4   3   1.081950   119.361     2.512
 H      6   5   4   1.082367   120.491   250.638
 H      7   6   5   1.022436   110.719   322.851
 H      7   6   5   1.023296   111.411   203.342
 H      7   6   5   1.023577   111.607    82.494

---------------------------
INTERNAL COORDINATES (A.U.)
---------------------------
 C      0   0   0   0.000000     0.000     0.000
 C      1   0   0   2.825579     0.000     0.000
 C      2   1   0   2.510830   124.760     0.000
 C      3   2   1   2.798750   124.415   179.007
 C      4   3   2   2.836704   122.881    25.923
 C      5   4   3   2.811945    60.164   107.761
 N      6   5   4   2.805950   117.997   108.811
 H      1   2   3   2.057880   111.474   179.845
 H      1   2   3   2.064689   111.327    59.436
 H      1   2   3   2.064980   111.030   300.011
 H      2   1   3   2.056014   116.827   178.914
 H      3   2   1   2.056300   119.984     0.900
 H      4   3   2   2.061468   114.796   238.853
 H      5   4   3   2.049383   117.734   216.766
 H      5   4   3   2.044589   119.361     2.512
 H      6   5   4   2.045377   120.491   250.638
 H      7   6   5   1.932123   110.719   322.851
 H      7   6   5   1.933749   111.411   203.342
 H      7   6   5   1.934280   111.607    82.494



           ************************************************************
           *        Program running with 8 parallel MPI-processes     *
           *              working on a common directory               *
           ************************************************************
           ************************************************************
           *              Shut down parallel processing               *
           ************************************************************


           ************************************************************
           *        Program running with 8 parallel MPI-processes     *
           *              working on a common directory               *
           ************************************************************

Diagonalization of the overlap matrix:
Smallest eigenvalue                        ... 1.166e-04
Time for diagonalization                   ...    0.090 sec
Threshold for overlap eigenvalues          ... 1.000e-08
Number of eigenvalues below threshold      ... 0
Time for construction of square roots      ...    0.019 sec
Total time needed                          ...    0.109 sec

-------------------
DFT GRID GENERATION
-------------------

General Integration Accuracy     IntAcc      ...  4.340
Radial Grid Type                 RadialGrid  ... Gauss-Chebyshev
Angular Grid (max. acc.)         AngularGrid ... Lebedev-194
Angular grid pruning method      GridPruning ... 3 (G Style)
Weight generation scheme         WeightScheme... Becke
Basis function cutoff            BFCut       ...    1.0000e-11
Integration weight cutoff        WCut        ...    1.0000e-14
Grids for H and He will be reduced by one unit

# of grid points (after initial pruning)     ...  41338 (   0.0 sec)
# of grid points (after weights+screening)   ...  37955 (   0.1 sec)
nearest neighbour list constructed           ...    0.0 sec
Grid point re-assignment to atoms done       ...    0.0 sec
Grid point division into batches done        ...    0.1 sec
Reduced shell lists constructed in    0.2 sec

Total number of grid points                  ...    37955
Total number of batches                      ...      602
Average number of points per batch           ...       63
Average number of grid points per atom       ...     1998
Average number of shells per batch           ...    90.16 (72.12%)
Average number of basis functions per batch  ...   214.08 (74.08%)
Average number of large shells per batch     ...    72.81 (80.75%)
Average number of large basis fcns per batch ...   172.91 (80.77%)
Maximum spatial batch extension              ...   4.40,  3.74,  2.93 au
Average spatial batch extension              ...   0.18,  0.18,  0.17 au

Time for grid setup =    0.319 sec

--------------
SCF ITERATIONS
--------------
ITER       Energy         Delta-E        Max-DP      RMS-DP      [F,P]     Damp
               ***  Starting incremental Fock matrix formation  ***
                      *** Initiating the SOSCF procedure ***
                      *** Re-Reading the Fockian *** 
                      *** Removing any level shift *** 
ITER      Energy       Delta-E        Grad      Rot      Max-DP    RMS-DP
  0   -290.07224916 -290.0722491593  0.000920  0.000920  0.001310  0.000028
               *** Restarting incremental Fock matrix formation ***
  1   -290.07229192  -0.0000427656  0.000341  0.000920  0.000563  0.000014
  2   -290.07229803  -0.0000061082  0.000066  0.000250  0.000127  0.000004
  3   -290.07229819  -0.0000001566  0.000035  0.000031  0.000051  0.000001
  4   -290.07229824  -0.0000000542  0.000012  0.000034  0.000029  0.000001
  5   -290.07229825  -0.0000000097  0.000003  0.000004  0.000010  0.000000
                  ***Gradient check signals convergence***
              ***Rediagonalizing the Fockian in SOSCF/NRSCF***

               *****************************************************
               *                     SUCCESS                       *
               *           SCF CONVERGED AFTER   6 CYCLES          *
               *****************************************************

Setting up the final grid:

General Integration Accuracy     IntAcc      ...  5.010
Radial Grid Type                 RadialGrid  ... Gauss-Chebyshev
Angular Grid (max. acc.)         AngularGrid ... Lebedev-434
Angular grid pruning method      GridPruning ... 3 (G Style)
Weight generation scheme         WeightScheme... Becke
Basis function cutoff            BFCut       ...    1.0000e-11
Integration weight cutoff        WCut        ...    1.0000e-14
Grids for H and He will be reduced by one unit

# of grid points (after initial pruning)     ... 155082 (   0.0 sec)
# of grid points (after weights+screening)   ... 140718 (   0.2 sec)
nearest neighbour list constructed           ...    0.0 sec
Grid point re-assignment to atoms done       ...    0.0 sec
Grid point division into batches done        ...    0.8 sec
Reduced shell lists constructed in    1.1 sec

Total number of grid points                  ...   140718
Total number of batches                      ...     2209
Average number of points per batch           ...       63
Average number of grid points per atom       ...     7406
Average number of shells per batch           ...    89.68 (71.74%)
Average number of basis functions per batch  ...   213.27 (73.80%)
Average number of large shells per batch     ...    71.09 (79.27%)
Average number of large basis fcns per batch ...   169.51 (79.48%)
Maximum spatial batch extension              ...   3.05,  4.85,  3.22 au
Average spatial batch extension              ...   0.11,  0.11,  0.11 au

Final grid set up in    2.0 sec
Final integration                            ... done (   0.9 sec)
Change in XC energy                          ...     0.000577675
Integrated number of electrons               ...    54.000028834
Previous integrated no of electrons          ...    54.001246239
Total Energy       :         -290.07172058 Eh           -7893.25280 eV
  Last Energy change         ...   -9.1086e-10  Tolerance :   1.0000e-08
  Last MAX-Density change    ...    4.9181e-06  Tolerance :   1.0000e-07
             **** THE GBW FILE WAS UPDATED (2025_+.gbw) ****
             **** DENSITY FILE WAS UPDATED (2025_+.scfp.tmp) ****
             **** ENERGY FILE WAS UPDATED (2025_+.en.tmp) ****
Total SCF time: 0 days 0 hours 0 min 43 sec 
           ************************************************************
           *              Shut down parallel processing               *
           ************************************************************

-------------------------   --------------------
FINAL SINGLE POINT ENERGY      -290.071720578997
-------------------------   --------------------



           ************************************************************
           *        Program running with 8 parallel MPI-processes     *
           *              working on a common directory               *
           ************************************************************
------------------------------------------------------------------------------
                         ORCA SCF GRADIENT CALCULATION
[...]
     39       0.019346  -0.032958  -0.061975  -0.054595  -0.509379  -0.267727
     40      -0.027525   0.009889  -0.013750  -0.006739  -0.182189  -0.135060
     41       0.089115  -0.054446  -0.101609  -0.061588  -0.069660   0.298329
     42      -0.059167   0.107443   0.038555   0.053741   0.505130   0.311737
     43      -0.057371   0.081381  -0.009364  -0.006712   0.204734   0.203383
     44      -0.073832   0.028566   0.169595   0.265823   0.081423  -0.244264
     45      -0.034868   0.099671  -0.264671  -0.223746  -0.015837  -0.057373
     46       0.005506  -0.052370   0.103261   0.096217   0.024292   0.053618
     47      -0.201377   0.212920  -0.646546  -0.499590   0.060809  -0.136317
     48       0.061513  -0.058371  -0.031440  -0.021298  -0.067203   0.024765
     49       0.012168  -0.001078  -0.005885   0.010356  -0.009598   0.018086
     50       0.073154  -0.099707  -0.048351  -0.062978  -0.072478   0.053542
     51       0.067461  -0.074857  -0.026602  -0.021788  -0.063662   0.033325
     52      -0.023582   0.039228   0.004741   0.016794   0.019901   0.019269
     53      -0.002137  -0.005000   0.007632  -0.006143   0.011275   0.023258
     54      -0.008416   0.039574  -0.009924   0.010963   0.021184  -0.012577
     55       0.007727  -0.010588  -0.007247   0.011782  -0.015556   0.007760
     56      -0.015486   0.005141   0.014006   0.017746   0.004379   0.002775
                 42         43         44         45         46         47    
      0      -0.032358  -0.058425   0.036114  -0.022882   0.119602   0.022925
      1      -0.008234  -0.019459   0.011863  -0.002423   0.028705  -0.000375
      2      -0.019977  -0.027826  -0.001223   0.011542  -0.012568  -0.028299
      3       0.020546   0.035724   0.012920  -0.002444   0.002727   0.010006
      4       0.000688  -0.002615  -0.002147  -0.000716   0.001749   0.000365
      5      -0.009352  -0.014788  -0.028129   0.010608  -0.037377  -0.021424
      6       0.028551   0.039497  -0.002048   0.021024  -0.015415   0.018802
      7       0.000997   0.000807  -0.000296   0.000038   0.000017   0.000358
      8      -0.007306  -0.022927  -0.026662  -0.003982  -0.021493  -0.021672
      9       0.055355  -0.096310  -0.045963  -0.004244   0.011078  -0.039315
     10      -0.005631  -0.012131   0.001409  -0.002543  -0.001080  -0.003452
     11       0.009337  -0.007555  -0.028126   0.000363  -0.012436  -0.016276
     12       0.023057  -0.015655  -0.051691  -0.019044  -0.011515  -0.045485
     13      -0.007581   0.007844   0.002363   0.001905  -0.006906   0.005672
     14      -0.003260  -0.044323   0.010874   0.022350   0.014148  -0.035683
     15       0.015828  -0.032407  -0.018786  -0.027611  -0.021132  -0.024951
     16      -0.009956  -0.005761   0.012245  -0.002717  -0.006170   0.005433
     17       0.017088   0.000089  -0.039271  -0.012296  -0.000632  -0.003884
     18      -0.059949   0.024541   0.059970  -0.013094  -0.025414   0.091669
     19       0.031356   0.003434  -0.008583  -0.019440   0.007541   0.007856
     20       0.058239   0.127441   0.031522  -0.044953   0.053389   0.179976
     21      -0.083519  -0.004374   0.119826   0.138114  -0.166939   0.095969
     22      -0.011690  -0.012629   0.045366   0.036919  -0.035210   0.011607
     23      -0.257234  -0.208406  -0.220609  -0.074707   0.021282   0.030565
     24      -0.038282   0.094454   0.187910   0.234378  -0.757118   0.166246
     25      -0.001714   0.005906   0.041686   0.045999  -0.149321   0.027381
     26      -0.226744  -0.127098  -0.106061  -0.002528  -0.101573   0.031688
     27       0.026764   0.315700   0.221751  -0.185395  -0.257504  -0.416538
     28      -0.015414   0.039155   0.037369  -0.046127  -0.050039  -0.096572
     29      -0.013176  -0.113983  -0.057350   0.028620  -0.046851  -0.022694
     30       0.025694   0.045978   0.038976  -0.007927  -0.008779  -0.000066
     31      -0.018157  -0.020136   0.005103  -0.005912   0.003366  -0.010361
     32      -0.087914  -0.150936  -0.067110  -0.005458   0.003912  -0.037153
     33       0.013749  -0.019701  -0.028556   0.013381  -0.003866   0.004329
     34       0.003672   0.004662  -0.012341  -0.002720  -0.005649   0.004142
     35       0.044141  -0.029130  -0.044999   0.000515  -0.007688  -0.024540
     36      -0.157454  -0.233224  -0.132864   0.150585   0.018326   0.063113
     37      -0.050204  -0.078107  -0.014835   0.050724   0.025194   0.005278
     38       0.127176   0.164462   0.077877  -0.098879  -0.055048  -0.037522
     39      -0.190795   0.249135  -0.241341   0.620253   0.164219  -0.058669
     40      -0.139395   0.114306  -0.141712   0.173435   0.020618   0.027009
     41       0.538146  -0.269048   0.533173   0.484858   0.228150  -0.135938
     42      -0.092027   0.567890  -0.204705   0.256682   0.225501  -0.172281
     43       0.090008   0.254266  -0.217988   0.115700   0.036258   0.003066
     44      -0.647955   0.006308   0.557389   0.034118   0.206915  -0.117903
     45      -0.041656  -0.034843  -0.019098  -0.075830   0.013156  -0.035377
     46       0.052938   0.008620   0.008764  -0.051695  -0.007412   0.043040
     47      -0.110493   0.009395   0.026943  -0.103305   0.070713   0.040602
     48       0.053850   0.135216   0.041156  -0.181420   0.073134  -0.348482
     49       0.003217   0.052187   0.029957  -0.014945   0.001908  -0.162247
     50      -0.008776   0.300179   0.099312  -0.143983   0.082997  -0.629451
     51       0.016072   0.107271   0.027377  -0.125751   0.027784   0.032362
     52      -0.012642  -0.041639   0.022017   0.043368  -0.050259   0.054358
     53       0.008413   0.051821   0.072341   0.037248  -0.060291   0.155921
     54      -0.021739  -0.044394  -0.016166   0.002641   0.008292   0.086904
     55       0.017753  -0.001177   0.012774   0.002308  -0.088641  -0.111188
     56      -0.014346  -0.006377   0.032040   0.127563  -0.246040  -0.238358
                 48         49         50         51         52         53    
      0      -0.020090   0.037605   0.061697  -0.032256   0.002379  -0.008146
      1      -0.000590   0.010492   0.016129  -0.008401   0.001100  -0.007760
      2       0.016375  -0.000621  -0.001224   0.002785   0.000087  -0.016155
      3      -0.009194   0.004561  -0.002583  -0.004305  -0.004391   0.003360
      4      -0.000482  -0.000639   0.000744   0.000096   0.000187   0.001726
      5       0.009154  -0.013583  -0.017696   0.012583   0.000049  -0.003657
      6      -0.016524   0.005681  -0.018686   0.002037  -0.020031   0.000416
      7      -0.000576   0.000055  -0.000178  -0.000128  -0.000518   0.000195
      8       0.008630  -0.014200  -0.005558   0.008293   0.005501  -0.000023
      9      -0.001133  -0.027722   0.001148   0.004428  -0.005207   0.006686
     10       0.002958  -0.003497   0.000216   0.001004   0.002190   0.000864
     11       0.003081  -0.010470  -0.004587   0.005464   0.003338   0.001881
     12       0.021044  -0.017452  -0.003570  -0.003140   0.009881  -0.023472
     13       0.004844   0.000692  -0.001343   0.002278   0.002299  -0.001745
     14       0.004374  -0.024144   0.000816   0.005148   0.006594   0.005604
     15       0.011963  -0.010199  -0.005609   0.002894   0.001521  -0.026991
     16       0.001660  -0.001814  -0.001449   0.003608   0.002280   0.003899
     17      -0.002263  -0.008296  -0.001098   0.004804  -0.000216  -0.004041
     18       0.004800   0.024557  -0.005187   0.013824  -0.030823  -0.073121
     19      -0.004569  -0.015905   0.003209   0.010873   0.017487   0.045687
     20      -0.014688   0.029529   0.029537   0.032233  -0.007865  -0.003115
     21      -0.065780   0.193858  -0.747687   0.419987   0.162661   0.119683
     22      -0.011882   0.047614  -0.164058   0.093149   0.041458   0.019029
     23      -0.016481  -0.067779   0.062156   0.005476   0.010204   0.078943
     24      -0.340373  -0.223762   0.350654  -0.049041   0.101925   0.080581
     25      -0.069065  -0.046111   0.078682  -0.011596   0.025437   0.014730
     26      -0.035116  -0.064330   0.045110   0.013454   0.017958   0.058539
     27       0.604506  -0.223468  -0.008632   0.073348  -0.184284   0.077919
     28       0.136061  -0.052678   0.005557   0.016736  -0.035454   0.019422
     29      -0.015700  -0.019656   0.015318   0.000433   0.002752  -0.004593
     30       0.005543  -0.001854   0.005366  -0.001819   0.013158   0.005369
     31       0.010714  -0.001159   0.008640  -0.000904   0.009898  -0.005222
     32       0.024407  -0.018228   0.012927   0.011402   0.020283  -0.005015
     33      -0.008092   0.000735  -0.004326   0.002608  -0.015634   0.005602
     34       0.001447   0.002878  -0.001735   0.000795   0.000396  -0.002220
     35      -0.000422  -0.014478  -0.008583   0.004954  -0.007220  -0.007882
     36      -0.052234   0.004452  -0.019901   0.002582  -0.037592   0.018318
     37      -0.003865  -0.002262   0.000696   0.002265  -0.002403   0.009282
     38       0.032258  -0.009925  -0.000728   0.008390   0.016319  -0.020373
     39       0.036346  -0.053544   0.009750  -0.014253  -0.001215   0.004831
     40      -0.001308  -0.000025  -0.007176  -0.002141  -0.015563   0.009764
     41       0.038969  -0.092791   0.048594   0.026294   0.025496   0.030081
     42       0.103975  -0.073206   0.074543  -0.009610   0.094235   0.015750
     43       0.019697   0.002711   0.014544   0.004082   0.004912   0.011509
     44       0.048056  -0.098409   0.053338   0.007782   0.071522   0.056555
     45       0.012866  -0.020707   0.007661  -0.000837   0.002109  -0.006607
     46       0.001776  -0.011451   0.004375   0.011180   0.020018   0.045006
     47       0.033256  -0.018931   0.033483   0.005253   0.043530   0.036123
     48      -0.253104   0.026815   0.000339  -0.045127   0.483917   0.281785
     49      -0.174483   0.025195  -0.047285   0.012043  -0.377824  -0.205153
     50      -0.575281   0.057692  -0.094236  -0.021698  -0.260967  -0.076281
     51       0.058529  -0.023677  -0.034249  -0.211045   0.426078   0.214778
     52      -0.005617  -0.004503  -0.139442  -0.205889  -0.214573  -0.122787
     53       0.025658  -0.075098  -0.428813  -0.829893  -0.043749   0.039747
     54      -0.002848   0.142793   0.052532   0.002644  -0.428222   0.771775
     55       0.066887   0.197785   0.034384  -0.052430   0.210876  -0.394606
     56       0.175626   0.861360   0.200680  -0.145390   0.030220   0.052755
                  54         55         56    
      0       0.002469   0.012764   0.018482
      1       0.000237  -0.044478  -0.005660
      2      -0.001633  -0.186659   0.024733
      3       0.001081  -0.056001  -0.026973
      4      -0.000055   0.067440  -0.036130
      5      -0.000055  -0.132050  -0.030178
      6      -0.004822  -0.100609   0.085559
      7       0.000004   0.031998   0.094180
      8       0.002311   0.027691   0.064474
      9       0.003833   0.209984  -0.042141
     10       0.000047  -0.025817   0.019922
     11       0.002284   0.054633  -0.004067
     12       0.008253  -0.066938   0.022993
     13      -0.001402  -0.082338   0.012069
     14       0.003481   0.020199   0.002880
     15       0.003475  -0.010931   0.004216
     16      -0.001393  -0.025684  -0.007852
     17       0.002851   0.035873   0.010403
     18      -0.024619  -0.046775   0.010943
     19       0.004636  -0.004757  -0.003324
     20      -0.016772   0.109912  -0.031260
     21       0.051984   0.188249  -0.023029
     22       0.012802   0.110579  -0.072701
     23      -0.001160   0.297583  -0.004441
     24       0.034605   0.137024  -0.017834
     25       0.008981   0.159906  -0.035679
     26      -0.001444   0.192342  -0.046649
     27      -0.076870   0.277104  -0.016440
     28      -0.016189   0.183760  -0.049493
     29       0.000119   0.090225  -0.019625
     30       0.003306  -0.285490  -0.697432
     31       0.001203  -0.164039  -0.315360
     32      -0.001997  -0.249324  -0.532948
     33      -0.005846   0.157751  -0.108198
     34      -0.000833  -0.027386  -0.061664
     35       0.001774  -0.042190   0.206973
     36      -0.039708   0.151561   0.036797
     37       0.001068  -0.011535  -0.012767
     38       0.010845  -0.203188   0.069499
     39      -0.027941   0.103242  -0.017461
     40      -0.022574   0.012730  -0.011275
     41       0.020392   0.012767  -0.009210
     42       0.027085   0.058847  -0.033116
     43      -0.006846   0.012471  -0.045146
     44       0.021265   0.121829   0.013071
     45       0.036354   0.091762  -0.029311
     46      -0.009212   0.071792  -0.075183
     47       0.000275   0.135129   0.015129
     48      -0.535263   0.023825   0.005413
     49       0.315223   0.224729  -0.064577
     50       0.121232   0.046589  -0.032593
     51       0.684645  -0.002647   0.012052
     52      -0.330102   0.162658  -0.060356
     53      -0.059748   0.087380  -0.026864
     54       0.019499  -0.111473  -0.003881
     55       0.012583   0.270334  -0.061514
     56       0.011434   0.132092  -0.011141


-----------
IR SPECTRUM
-----------

 Mode    freq (cm**-1)   T**2         TX         TY         TZ
-------------------------------------------------------------------
  49:       588.06  214.578047  ( -4.962651  -3.980260  13.194987)
  50:      1941.26   13.527317  ( -0.901474  -2.734825  -2.288099)
  51:      2407.77   42.841135  (  0.273013  -1.234400  -6.422060)
  52:      4619.90   37.492655  ( -2.394212  -4.205622   3.751420)
  53:      5094.54  156.076750  ( 12.099925  -2.206993   2.190378)
  54:      5430.97   29.712222  (  0.757839  -2.288344   4.888904)
  55:     20191.17  1953.906906  ( 30.946889  31.538036   1.244694)
  56:     29874.50  3633.433404  ( -9.354841 -58.817959  -9.293439)

The first frequency considered to be a vibration is 49
The total number of vibrations considered is 8


--------------------------
THERMOCHEMISTRY AT 298.15K
--------------------------

Temperature         ... 298.15 K
Pressure            ... 1.00 atm
Total Mass          ... 98.17 AMU

Throughout the following assumptions are being made:
  (1) The electronic state is orbitally nondegenerate
  (2) There are no thermally accessible electronically excited states
  (3) Hindered rotations indicated by low frequency modes) are not
      treated as such but are treated as vibrations and this may
      case some error
  (4) All equations used are the standard statistical mechanics
      equations for an ideal gas
  (5) All vibrations are strinctly harmonic


------------
INNER ENERGY
------------

The inner energy is: U= E(el) + E(ZPE) + E(vib) + E(rot) + E(trans)
    E(el)   - is the total energy from the electronic structure calculation
              = E(kin-el) + E(nuc-el) + E(el-el) + E(nuc-nuc)
    E(ZPE)  - the the zero temperature vibrational energy from the frequency calculation
    E(vib)  - the the finite temperature correction to E(ZPE) due to population
              of excietd vibrational states
    E(rot)  - is the rotational thermal energy
    E(trans)- is the translational thermal energy

Summary of contributions to the inner energy U:
Electronic energy                ...   -290.07175917 Eh
Zero point energy                ...      0.15980928 Eh     100.28 kcal/mol
Thermal vibrational correction   ...      0.00016752 Eh       0.11 kcal/mol
Thermal rotational correction    ...      0.00141627 Eh       0.89 kcal/mol
Thermal translational correction ...      0.00141627 Eh       0.89 kcal/mol
-----------------------------------------------------------------------
Total thermal energy                   -289.90894983 Eh


Summary of corrections to the electronic energy:
(perhaps to be used in another calculation)
Total thermal correction                  0.00300006 Eh       1.88 kcal/mol
Non-thermal (ZPE) correction              0.15980928 Eh     100.28 kcal/mol
-----------------------------------------------------------------------
Total correction                          0.16280934 Eh     102.16 kcal/mol


--------
ENTHALPY
--------

The enthalpy is H = U + kB*T
                kB is Boltzmann's constant
Total free energy                 ...   -289.90894983 Eh 
Thermal Enthalpy correction       ...      0.00094421 Eh       0.59 kcal/mol
-----------------------------------------------------------------------
Total Enthalpy                    ...   -289.90800562 Eh


-------
ENTROPY
-------

The entropy contributions are T*S = T*(S(el)+S(vib)+S(rot)+S(trans)
     S(el)   - electronic entropy
     S(vib)  - vibrational entropy
     S(rot)  - rotational entropy
     S(trans)- translational entropy
The entropies will be listed as mutliplied by the temperature to get
units of energy

Electronic entropy                ...      0.00000000 Eh      0.00 kcal/mol
Vibrational entropy               ...      0.00022458 Eh      0.14 kcal/mol
Rotational entropy                ...      0.01218653 Eh      7.65 kcal/mol
Translational entropy             ...      0.01884507 Eh     11.83 kcal/mol
-----------------------------------------------------------------------
Final entropy term                ...      0.03125617 Eh     19.61 kcal/mol


CAUTION: The rotational entropy is not quite correctly treated here
         because it includes a symmetry number that is not yet correctly
         implemented in ORCA!
For a nonlinear molecule the correct rotational entropy is:
    S(rot) = R*(ln(qrot/sn)+1.5)
    R    = 8.31441 J/mol/K = 1.987191683e-3 kcal/mol/K
    qrot = 269842.4169021
    sn is the rotational symmetry number. We have assumed 3 here
       if it is different for your molecule then you should correct
       the printed rotational entropy by manually evaluating the equation
       as given above

For convenience we print out the resulting values for sn=1 - 12:
 sn= 1  qrot/sn=  269842.4169 T*S(rot)=     8.30 kcal/mol T*S(tot)=    20.26 kcal/mol
 sn= 2  qrot/sn=  134921.2085 T*S(rot)=     7.89 kcal/mol T*S(tot)=    19.85 kcal/mol
 sn= 3  qrot/sn=   89947.4723 T*S(rot)=     7.65 kcal/mol T*S(tot)=    19.61 kcal/mol
 sn= 4  qrot/sn=   67460.6042 T*S(rot)=     7.48 kcal/mol T*S(tot)=    19.44 kcal/mol
 sn= 5  qrot/sn=   53968.4834 T*S(rot)=     7.34 kcal/mol T*S(tot)=    19.31 kcal/mol
 sn= 6  qrot/sn=   44973.7362 T*S(rot)=     7.24 kcal/mol T*S(tot)=    19.20 kcal/mol
 sn= 7  qrot/sn=   38548.9167 T*S(rot)=     7.15 kcal/mol T*S(tot)=    19.11 kcal/mol
 sn= 8  qrot/sn=   33730.3021 T*S(rot)=     7.07 kcal/mol T*S(tot)=    19.03 kcal/mol
 sn= 9  qrot/sn=   29982.4908 T*S(rot)=     7.00 kcal/mol T*S(tot)=    18.96 kcal/mol
 sn=10  qrot/sn=   26984.2417 T*S(rot)=     6.93 kcal/mol T*S(tot)=    18.90 kcal/mol
 sn=11  qrot/sn=   24531.1288 T*S(rot)=     6.88 kcal/mol T*S(tot)=    18.84 kcal/mol
 sn=12  qrot/sn=   22486.8681 T*S(rot)=     6.83 kcal/mol T*S(tot)=    18.79 kcal/mol


-------------------
GIBBS FREE ENTHALPY
-------------------

The Gibbs free enthalpy is G = H - T*S

Total enthalpy                    ...   -289.90800562 Eh 
Total entropy correction          ...     -0.03125617 Eh    -19.61 kcal/mol
-----------------------------------------------------------------------
Final Gibbs free enthalpy         ...   -289.93926179 Eh

For completeness - the Gibbs free enthalpy minus the electronic energy
G-E(el)                           ...      0.13249738 Eh     83.14 kcal/mol


Timings for individual modules:

Sum of individual times         ...     3895.677 sec (=  64.928 min)
GTO integral calculation        ...       22.160 sec (=   0.369 min)   0.6 %
SCF iterations                  ...      770.329 sec (=  12.839 min)  19.8 %
SCF Gradient evaluation         ...      435.171 sec (=   7.253 min)  11.2 %
Geometry relaxation             ...        0.782 sec (=   0.013 min)   0.0 %
Analytical frequency calculation...     2667.234 sec (=  44.454 min)  68.5 %
                             ****ORCA TERMINATED NORMALLY****
TOTAL RUN TIME: 0 days 1 hours 4 minutes 57 seconds 801 msec
