
                                 *****************
                                 * O   R   C   A *
                                 *****************

           --- An Ab Initio, DFT and Semiempirical electronic structure package ---

                  #######################################################
                  #                        -***-                        #
                  #  Department of molecular theory and spectroscopy    #
                  #              Directorship: Frank Neese              #
                  # Max Planck Institute for Chemical Energy Conversion #
                  #                  D-45470 Muelheim/Ruhr              #
                  #                       Germany                       #
                  #                                                     #
                  #                  All rights reserved                #
                  #                        -***-                        #
                  #######################################################


                         Program Version 3.0.3 - RELEASE   -


 With contributions from (in alphabetic order):
   Ute Becker             : Parallelization
   Dmytro Bykov           : SCF Hessian
   Dmitry Ganyushin       : Spin-Orbit,Spin-Spin,Magnetic field MRCI
   Andreas Hansen         : Spin unrestricted coupled pair/coupled cluster methods
   Dimitrios Liakos       : Extrapolation schemes; parallel MDCI
   Robert Izsak           : Overlap fitted RIJCOSX, COSX-SCS-MP3
   Christian Kollmar      : KDIIS, OOCD, Brueckner-CCSD(T), CCSD density
   Simone Kossmann        : Meta GGA functionals, TD-DFT gradient, OOMP2, MP2 Hessian
   Taras Petrenko         : DFT Hessian,TD-DFT gradient, ASA and ECA modules, normal mode analysis, Resonance Raman, ABS, FL, XAS/XES, NRVS
   Christoph Reimann      : Effective Core Potentials
   Michael Roemelt        : Restricted open shell CIS
   Christoph Riplinger    : Improved optimizer, TS searches, QM/MM, DLPNO-CCSD
   Barbara Sandhoefer     : DKH picture change effects
   Igor Schapiro          : Molecular dynamics
   Kantharuban Sivalingam : CASSCF convergence, NEVPT2
   Boris Wezisla          : Elementary symmetry handling
   Frank Wennmohs         : Technical directorship


 We gratefully acknowledge several colleagues who have allowed us to
 interface, adapt or use parts of their codes:
   Stefan Grimme, W. Hujo, H. Kruse, T. Risthaus : VdW corrections, initial TS optimization,
                                                   DFT functionals, gCP
   Ed Valeev                                     : LibInt (2-el integral package), F12 methods
   Garnet Chan, S. Sharma, R. Olivares           : DMRG
   Ulf Ekstrom                                   : XCFun DFT Library
   Mihaly Kallay                                 : mrcc  (arbitrary order and MRCC methods)
   Andreas Klamt, Michael Diedenhofen            : otool_cosmo (COSMO solvation model)
   Frank Weinhold                                : gennbo (NPA and NBO analysis)
   Christopher J. Cramer and Donald G. Truhlar   : smd solvation model


 Your calculation uses the libint2 library for the computation of 2-el integrals
 For citations please refer to: http://libint.valeyev.net

 This ORCA versions uses:
   CBLAS   interface :  Fast vector & matrix operations
   LAPACKE interface :  Fast linear algebra routines
   SCALAPACK package :  Parallel linear algebra routines


Your calculation utilizes the basis: Ahlrichs-TZV
Cite in your paper:
H - Kr: A. Schaefer, H. Horn and R. Ahlrichs, J. Chem. Phys. 97, 2571 (1992).

The def2-TZV basis will be loaded
Cite in your paper:
 	F. Weigend, R. Ahlrichs, Phys. Chem. Chem. Phys. 2005, 7, 3297.

================================================================================
                                        WARNINGS
                       Please study these warnings very carefully!
================================================================================
Now building the actual basis set
WARNING: Geometry optimizations can change the point-group symmetry!

WARNING: Geometry Optimization
  ===> : Switching off AutoStart
         For restart on a previous wavefunction, please use MOREAD


INFO   : the flag for use of LIBINT has been found!

================================================================================
                                       INPUT FILE
================================================================================
NAME = 2033_+.inp
|  1> ! NORI PBE0 def2-TZVP UseSym TightOPT Freq TightSCF Grid3 FinalGrid5 XYZFile
|  2> % pal
|  3>     nprocs 8
|  4> end
|  5> %method
|  6>     SymThresh 5.0e-2
|  7> end
|  8> % geom 
|  9>     MaxIter 10
| 10> end 
| 11> % maxcore 2000
| 12> % output
| 13>     printlevel mini
| 14>     print[ P_Basis ] 0
| 15>     print[ P_SCFInfo ] 1
| 16>     print[ P_SCFIterInfo ] 1
| 17>     print[ P_OrbEn ] 0
| 18>     print[ P_Cartesian ] 0
| 19> end
| 20> % elprop
| 21>     Dipole false
| 22> end
| 23> *xyz 1 1
| 24>  C        4.1648555674     1.4636578177     0.9515321333 
| 25>  C        3.6152142083     0.2334788999     0.3020835141 
| 26>  C        2.6827561605     0.2627707579    -0.6417644101 
| 27>  C        4.2174135862    -1.0210160446     0.8503119282 
| 28>  C        3.6236135148    -1.5377799565     2.1846147282 
| 29>  C        2.9493827180    -2.6660008242     1.3995523337 
| 30>  N        3.7458224254    -2.2968270557     0.1641806503 
| 31>  H        3.6538772917     2.3552315537     0.5929078040 
| 32>  H        5.2333514696     1.5707065750     0.7394888948 
| 33>  H        4.0570588843     1.4246375287     2.0403435459 
| 34>  H        2.2598318866    -0.6116951836    -1.1288192013 
| 35>  H        2.2787916938     1.2060356828    -0.9877991997 
| 36>  H        5.3073965932    -0.9669881579     0.8217723911 
| 37>  H        2.9486858590    -0.8470530482     2.6840412933 
| 38>  H        4.3757920371    -1.8859105297     2.8907863496 
| 39>  H        3.1319492124    -3.6914870219     1.7115264883 
| 40>  H        1.8902456549    -2.5168013012     1.2002797282 
| 41>  H        4.5055649088    -2.9432420558    -0.0405088717 
| 42>  H        3.2131163278    -2.1462076364    -0.6922001001 
| 43> *
| 44> 
| 45>                          ****END OF INPUT****
================================================================================

The point group is C1 - hence turning off symmetry
If this is a round-off problem, please increase the symmetry
        detection tolerance (%method SymThresh)


                       *****************************
                       * Geometry Optimization Run *
                       *****************************

Geometry optimization settings:
Update method            Update   .... BFGS
Choice of coordinates    CoordSys .... Redundant Internals
Initial Hessian          InHess   .... Almoef's Model

Convergence Tolerances:
Energy Change            TolE     ....  1.0000e-06 Eh
Max. Gradient            TolMAXG  ....  1.0000e-04 Eh/bohr
RMS Gradient             TolRMSG  ....  3.0000e-05 Eh/bohr
Max. Displacement        TolMAXD  ....  1.0000e-03 bohr
RMS Displacement         TolRMSD  ....  6.0000e-04 bohr

------------------------------------------------------------------------------
                        ORCA OPTIMIZATION COORDINATE SETUP
------------------------------------------------------------------------------

The optimization will be done in new redundant internal coordinates
Making redundant internal coordinates   ...  (new redundants) done
Evaluating the initial hessian          ...  (Almloef) done
Evaluating the coordinates              ...  done
Calculating the B-matrix                .... done
Calculating the G-matrix                .... done
Diagonalizing the G-matrix              .... done
The first mode is                       ....   56
The number of degrees of freedom        ....   51

    -----------------------------------------------------------------
                    Redundant Internal Coordinates


    -----------------------------------------------------------------
         Definition                    Initial Value    Approx d2E/dq
    -----------------------------------------------------------------
      1. B(C   1,C   0)                  1.4957         0.423684   
      2. B(C   2,C   1)                  1.3271         0.787222   
      3. B(C   3,C   1)                  1.4956         0.423826   
      4. B(C   4,C   3)                  1.5492         0.348138   
      5. B(C   5,C   4)                  1.5309         0.372280   
      6. B(N   6,C   5)                  1.5155         0.352894   
      7. B(N   6,C   3)                  1.5234         0.342753   
      8. B(H   7,C   0)                  1.0884         0.362223   
      9. B(H   8,C   0)                  1.0946         0.354092   
     10. B(H   9,C   0)                  1.0948         0.353767   
     11. B(H  10,C   2)                  1.0866         0.364578   
     12. B(H  11,C   2)                  1.0829         0.369614   
     13. B(H  12,C   3)                  1.0917         0.357866   
     14. B(H  13,C   4)                  1.0872         0.363790   
     15. B(H  14,C   4)                  1.0889         0.361593   
     16. B(H  15,C   5)                  1.0873         0.363653   
     17. B(H  16,C   5)                  1.0880         0.362757   
     18. B(H  17,N   6)                  1.0183         0.419695   
     19. B(H  18,N   6)                  1.0197         0.417514   
     20. A(C   1,C   0,H   8)          110.7957         0.330199   
     21. A(C   1,C   0,H   9)          111.4888         0.330149   
     22. A(H   8,C   0,H   9)          106.9930         0.289266   
     23. A(H   7,C   0,H   8)          108.3213         0.290340   
     24. A(C   1,C   0,H   7)          110.9858         0.331442   
     25. A(H   7,C   0,H   9)          108.0988         0.290298   
     26. A(C   2,C   1,C   3)          124.2020         0.423182   
     27. A(C   0,C   1,C   3)          112.5032         0.379459   
     28. A(C   0,C   1,C   2)          123.2883         0.423156   
     29. A(C   1,C   2,H  11)          120.5705         0.369214   
     30. A(H  10,C   2,H  11)          114.3658         0.292603   
     31. A(C   1,C   2,H  10)          125.0637         0.368345   
     32. A(C   4,C   3,N   6)           89.4218         0.351617   
     33. A(C   1,C   3,N   6)          114.3746         0.363575   
     34. A(N   6,C   3,H  12)          109.8003         0.317556   
     35. A(C   4,C   3,H  12)          114.9432         0.320267   
     36. A(C   1,C   3,H  12)          110.5430         0.330797   
     37. A(C   1,C   3,C   4)          116.1781         0.366831   
     38. A(H  13,C   4,H  14)          109.5139         0.291495   
     39. A(C   5,C   4,H  14)          113.6517         0.324354   
     40. A(C   3,C   4,H  14)          113.6061         0.320810   
     41. A(C   5,C   4,H  13)          115.4900         0.324677   
     42. A(C   3,C   4,H  13)          114.9396         0.321128   
     43. A(C   3,C   4,C   5)           88.4506         0.358795   
     44. A(N   6,C   5,H  16)          109.2009         0.319777   
     45. A(C   4,C   5,H  16)          114.9345         0.324526   
     46. A(N   6,C   5,H  15)          112.0483         0.319906   
     47. A(C   4,C   5,H  15)          118.2913         0.324657   
     48. A(C   4,C   5,N   6)           90.4038         0.357398   
     49. A(H  15,C   5,H  16)          110.2021         0.291625   
     50. A(H  17,N   6,H  18)          108.3430         0.300067   
     51. A(C   3,N   6,C   5)           89.9743         0.350257   
     52. A(C   5,N   6,H  18)          116.4888         0.324462   
     53. A(C   3,N   6,H  18)          114.5982         0.322913   
     54. A(C   5,N   6,H  17)          113.6599         0.324740   
     55. A(C   3,N   6,H  17)          113.0282         0.323189   
     56. D(C   2,C   1,C   0,H   8)   -116.6969         0.013267   
     57. D(C   3,C   1,C   0,H   9)    -54.8437         0.013267   
     58. D(C   3,C   1,C   0,H   7)   -175.4138         0.013267   
     59. D(C   2,C   1,C   0,H   7)      3.6885         0.013267   
     60. D(C   3,C   1,C   0,H   8)     64.2007         0.013267   
     61. D(C   2,C   1,C   0,H   9)    124.2586         0.013267   
     62. D(H  11,C   2,C   1,C   3)    179.2808         0.044629   
     63. D(H  11,C   2,C   1,C   0)      0.2836         0.044629   
     64. D(H  10,C   2,C   1,C   3)     -0.6737         0.044629   
     65. D(H  10,C   2,C   1,C   0)   -179.6710         0.044629   
     66. D(N   6,C   3,C   1,C   2)      4.1975         0.013276   
     67. D(N   6,C   3,C   1,C   0)   -176.7098         0.013276   
     68. D(H  12,C   3,C   1,C   0)    -52.1730         0.013276   
     69. D(C   4,C   3,C   1,C   0)     81.1453         0.013276   
     70. D(C   4,C   3,C   1,C   2)    -97.9474         0.013276   
     71. D(H  12,C   3,C   1,C   2)    128.7344         0.013276   
     72. D(H  14,C   4,C   3,N   6)    105.3285         0.009773   
     73. D(H  13,C   4,C   3,H  12)    120.9268         0.009773   
     74. D(H  13,C   4,C   3,N   6)   -127.4246         0.009773   
     75. D(H  13,C   4,C   3,C   1)    -10.3639         0.009773   
     76. D(H  14,C   4,C   3,C   1)   -137.6108         0.009773   
     77. D(C   5,C   4,C   3,H  12)   -121.5437         0.009773   
     78. D(C   5,C   4,C   3,N   6)     -9.8951         0.009773   
     79. D(C   5,C   4,C   3,C   1)    107.1656         0.009773   
     80. D(H  14,C   4,C   3,H  12)     -6.3202         0.009773   
     81. D(H  15,C   5,C   4,H  13)   -117.5511         0.011071   
     82. D(H  15,C   5,C   4,C   3)    125.4221         0.011071   
     83. D(N   6,C   5,C   4,H  14)   -105.2340         0.011071   
     84. D(N   6,C   5,C   4,H  13)    126.9740         0.011071   
     85. D(H  15,C   5,C   4,H  14)     10.2409         0.011071   
     86. D(N   6,C   5,C   4,C   3)      9.9471         0.011071   
     87. D(H  16,C   5,C   4,H  14)    143.2985         0.011071   
     88. D(H  16,C   5,C   4,H  13)     15.5065         0.011071   
     89. D(H  16,C   5,C   4,C   3)   -101.5204         0.011071   
     90. D(H  18,N   6,C   5,H  16)    -11.1421         0.011470   
     91. D(H  18,N   6,C   5,H  15)    111.2408         0.011470   
     92. D(H  18,N   6,C   5,C   4)   -127.8139         0.011470   
     93. D(H  17,N   6,C   5,H  16)   -138.1713         0.011470   
     94. D(H  17,N   6,C   5,H  15)    -15.7884         0.011470   
     95. D(C   3,N   6,C   5,H  16)    106.5586         0.011470   
     96. D(C   3,N   6,C   5,H  15)   -131.0586         0.011470   
     97. D(C   3,N   6,C   5,C   4)    -10.1133         0.011470   
     98. D(H  18,N   6,C   3,H  12)   -114.2460         0.010855   
     99. D(H  18,N   6,C   3,C   4)    129.3557         0.010855   
    100. D(H  18,N   6,C   3,C   1)     10.6844         0.010855   
    101. D(H  17,N   6,C   5,C   4)    105.1568         0.011470   
    102. D(H  17,N   6,C   3,H  12)     10.5512         0.010855   
    103. D(H  17,N   6,C   3,C   4)   -105.8470         0.010855   
    104. D(H  17,N   6,C   3,C   1)    135.4816         0.010855   
    105. D(C   5,N   6,C   3,H  12)    126.3915         0.010855   
    106. D(C   5,N   6,C   3,C   4)      9.9932         0.010855   
    107. D(C   5,N   6,C   3,C   1)   -108.6781         0.010855   
    -----------------------------------------------------------------

Number of atoms                         .... 19
Number of degrees of freedom            .... 107

         *************************************************************
         *                GEOMETRY OPTIMIZATION CYCLE   1            *
         *************************************************************


           ************************************************************
           *        Program running with 8 parallel MPI-processes     *
           *              working on a common directory               *
           ************************************************************
           ************************************************************
           *              Shut down parallel processing               *
           ************************************************************


           ************************************************************
           *        Program running with 8 parallel MPI-processes     *
           *              working on a common directory               *
           ************************************************************
------------
SCF SETTINGS
------------
Hamiltonian:
 Density Functional     Method          .... DFT(GTOs)
 Exchange Functional    Exchange        .... PBE
   PBE kappa parameter  XKappa          ....  0.804000
 Correlation Functional Correlation     .... PBE
 LDA part of GGA corr.  LDAOpt          .... PW91-LDA
 Gradients option       PostSCFGGA      .... off
 Hybrid DFT is turned on
   Fraction HF Exchange ScalHFX         ....  0.250000
   Scaling of DF-GGA-X  ScalDFX         ....  0.750000
   Scaling of DF-GGA-C  ScalDFC         ....  1.000000
   Scaling of DF-LDA-C  ScalLDAC        ....  1.000000
   Perturbative correction              ....  0.000000
   NL short-range parameter             ....  6.900000


General Settings:
 Integral files         IntName         .... 2033_+
 Hartree-Fock type      HFTyp           .... RHF
 Total Charge           Charge          ....    1
 Multiplicity           Mult            ....    1
 Number of Electrons    NEL             ....   54
 Basis Dimension        Dim             ....  289
 Nuclear Repulsion      ENuc            ....    319.2746310168 Eh

Convergence Acceleration:
 DIIS                   CNVDIIS         .... on
   Start iteration      DIISMaxIt       ....    12
   Startup error        DIISStart       ....  0.200000
   # of expansion vecs  DIISMaxEq       ....     5
   Bias factor          DIISBfac        ....   1.050
   Max. coefficient     DIISMaxC        ....  10.000
 Newton-Raphson         CNVNR           .... off
 SOSCF                  CNVSOSCF        .... on
   Start iteration      SOSCFMaxIt      ....   150
   Startup grad/error   SOSCFStart      ....  0.003300
 Level Shifting         CNVShift        .... on
   Level shift para.    LevelShift      ....    0.2500
   Turn off err/grad.   ShiftErr        ....    0.0010
 Zerner damping         CNVZerner       .... off
 Static damping         CNVDamp         .... on
   Fraction old density DampFac         ....    0.7000
   Max. Damping (<1)    DampMax         ....    0.9800
   Min. Damping (>=0)   DampMin         ....    0.0000
   Turn off err/grad.   DampErr         ....    0.1000
 Fernandez-Rico         CNVRico         .... off

SCF Procedure:
 Maximum # iterations   MaxIter         ....   125
 SCF integral mode      SCFMode         .... Direct
   Integral package                     .... LIBINT
 Reset frequeny         DirectResetFreq ....    20
 Integral Threshold     Thresh          ....  2.500e-11 Eh
 Primitive CutOff       TCut            ....  2.500e-12 Eh

Convergence Tolerance:
 Convergence Check Mode ConvCheckMode   .... Total+1el-Energy
 Energy Change          TolE            ....  1.000e-08 Eh
 1-El. energy change                    ....  1.000e-05 Eh
 Orbital Gradient       TolG            ....  1.000e-05
 Orbital Rotation angle TolX            ....  1.000e-05
 DIIS Error             TolErr          ....  5.000e-07


Diagonalization of the overlap matrix:
Smallest eigenvalue                        ... 7.677e-05
Time for diagonalization                   ...    0.086 sec
Threshold for overlap eigenvalues          ... 1.000e-08
Number of eigenvalues below threshold      ... 0
Time for construction of square roots      ...    0.013 sec
Total time needed                          ...    0.100 sec

-------------------
DFT GRID GENERATION
-------------------

General Integration Accuracy     IntAcc      ...  4.340
Radial Grid Type                 RadialGrid  ... Gauss-Chebyshev
Angular Grid (max. acc.)         AngularGrid ... Lebedev-194
Angular grid pruning method      GridPruning ... 3 (G Style)
Weight generation scheme         WeightScheme... Becke
Basis function cutoff            BFCut       ...    1.0000e-11
Integration weight cutoff        WCut        ...    1.0000e-14
Grids for H and He will be reduced by one unit

# of grid points (after initial pruning)     ...  41338 (   0.0 sec)
# of grid points (after weights+screening)   ...  37502 (   0.1 sec)
nearest neighbour list constructed           ...    0.0 sec
Grid point re-assignment to atoms done       ...    0.0 sec
Grid point division into batches done        ...    0.1 sec
Reduced shell lists constructed in    0.1 sec

Total number of grid points                  ...    37502
Total number of batches                      ...      598
Average number of points per batch           ...       62
Average number of grid points per atom       ...     1974
Average number of shells per batch           ...    99.29 (79.43%)
Average number of basis functions per batch  ...   239.39 (82.84%)
Average number of large shells per batch     ...    80.42 (81.00%)
Average number of large basis fcns per batch ...   192.39 (80.37%)
Maximum spatial batch extension              ...   5.92,  2.84,  3.77 au
Average spatial batch extension              ...   0.19,  0.17,  0.17 au

Time for grid setup =    0.295 sec

Loading Hartree-Fock densities                     ... done
Calculating cut-offs                               ... done
Setting up the integral package                    ... done
Initializing the effective Hamiltonian             ... done
Starting the Coulomb interaction                   ... done (   0.0 sec)
Reading the grid                                   ... done
Mapping shells                                     ... done
Starting the XC term evaluation                    ... done (   0.3 sec)
  promolecular density results
     # of electrons  =     54.994731970
     EX              =    -40.807464970
     EC              =     -1.806462227
     EX+EC           =    -42.613927197
Transforming the Hamiltonian                       ... done (   0.0 sec)
Diagonalizing the Hamiltonian                      ... done (   0.0 sec)
Back transforming the eigenvectors                 ... done (   0.0 sec)
Now organizing SCF variables                       ... done
--------------
SCF ITERATIONS
--------------
ITER       Energy         Delta-E        Max-DP      RMS-DP      [F,P]     Damp
               ***  Starting incremental Fock matrix formation  ***
  0   -289.9220759195   0.000000000000 0.03289741  0.00084065  0.1686363 0.7000
  1   -289.9928641744  -0.070788254904 0.02646069  0.00066711  0.0908600 0.7000
                               ***Turning on DIIS***
  2   -290.0248571405  -0.031992966149 0.04546709  0.00126966  0.0378224 0.0000
  3   -290.0706122367  -0.045755096157 0.02660171  0.00044771  0.0478793 0.0000
  4   -290.0821644676  -0.011552230858 0.00991352  0.00014792  0.0074831 0.0000
                      *** Initiating the SOSCF procedure ***
                           *** Shutting down DIIS ***
                      *** Re-Reading the Fockian *** 
                      *** Removing any level shift *** 
ITER      Energy       Delta-E        Grad      Rot      Max-DP    RMS-DP
  5   -290.08254642  -0.0003819550  0.000362  0.000362  0.003060  0.000053
               *** Restarting incremental Fock matrix formation ***
  6   -290.08256904  -0.0000226223  0.000188  0.000674  0.002243  0.000036
  7   -290.08257027  -0.0000012249  0.000170  0.000278  0.000283  0.000007
  8   -290.08257153  -0.0000012605  0.000046  0.000116  0.000193  0.000004
  9   -290.08257153  -0.0000000024  0.000053  0.000078  0.000043  0.000001
 10   -290.08257157  -0.0000000395  0.000009  0.000018  0.000044  0.000001
 11   -290.08257157  -0.0000000005  0.000007  0.000006  0.000009  0.000000
                  ***Gradient check signals convergence***
              ***Rediagonalizing the Fockian in SOSCF/NRSCF***

               *****************************************************
               *                     SUCCESS                       *
               *           SCF CONVERGED AFTER  12 CYCLES          *
               *****************************************************

Setting up the final grid:

General Integration Accuracy     IntAcc      ...  5.010
Radial Grid Type                 RadialGrid  ... Gauss-Chebyshev
Angular Grid (max. acc.)         AngularGrid ... Lebedev-434
Angular grid pruning method      GridPruning ... 3 (G Style)
Weight generation scheme         WeightScheme... Becke
Basis function cutoff            BFCut       ...    1.0000e-11
Integration weight cutoff        WCut        ...    1.0000e-14
Grids for H and He will be reduced by one unit

# of grid points (after initial pruning)     ... 155082 (   0.0 sec)
# of grid points (after weights+screening)   ... 139104 (   0.1 sec)
nearest neighbour list constructed           ...    0.0 sec
Grid point re-assignment to atoms done       ...    0.0 sec
Grid point division into batches done        ...    0.8 sec
Reduced shell lists constructed in    1.1 sec

Total number of grid points                  ...   139104
Total number of batches                      ...     2184
Average number of points per batch           ...       63
Average number of grid points per atom       ...     7321
Average number of shells per batch           ...    96.89 (77.51%)
Average number of basis functions per batch  ...   233.26 (80.71%)
Average number of large shells per batch     ...    77.49 (79.98%)
Average number of large basis fcns per batch ...   184.36 (79.04%)
Maximum spatial batch extension              ...   6.67,  3.32,  3.77 au
Average spatial batch extension              ...   0.12,  0.11,  0.11 au

Final grid set up in    1.8 sec
Final integration                            ... done (   0.9 sec)
Change in XC energy                          ...     0.000422667
Integrated number of electrons               ...    53.999923857
Previous integrated no of electrons          ...    54.000192762
Total Energy       :         -290.08214891 Eh           -7893.53657 eV
  Last Energy change         ...   -1.8070e-09  Tolerance :   1.0000e-08
  Last MAX-Density change    ...    9.3026e-06  Tolerance :   1.0000e-07
             **** THE GBW FILE WAS UPDATED (2033_+.gbw) ****
             **** DENSITY FILE WAS UPDATED (2033_+.scfp.tmp) ****
             **** ENERGY FILE WAS UPDATED (2033_+.en.tmp) ****
Total SCF time: 0 days 0 hours 2 min 2 sec 
           ************************************************************
           *              Shut down parallel processing               *
           ************************************************************

-------------------------   --------------------
FINAL SINGLE POINT ENERGY      -290.082148907530
-------------------------   --------------------



           ************************************************************
           *        Program running with 8 parallel MPI-processes     *
           *              working on a common directory               *
           ************************************************************
------------------------------------------------------------------------------
                         ORCA SCF GRADIENT CALCULATION
------------------------------------------------------------------------------

Gradient of the Kohn-Sham DFT energy:
Kohn-Sham wavefunction type      ... RKS
Hartree-Fock exchange scaling    ...    0.250
Number of operators              ...    1
Number of atoms                  ...   19
Basis set dimensions             ...  289
Integral neglect threshold       ... 2.5e-11
Integral primitive cutoff        ... 2.5e-12

Nuclear repulsion gradient       ... done
One Electron Gradient            ... done
Pre-screening matrix             ... done
Starting the two electron gradient:
Two electron gradient done
Exchange-correlation gradient    ... done

------------------
CARTESIAN GRADIENT
------------------

   1   C   :    0.000067341   -0.000349295    0.000019537
   2   C   :   -0.000031163   -0.000382711    0.000026002
   3   C   :    0.000057171    0.000178162   -0.000163939
   4   C   :   -0.000174867   -0.000079995   -0.000007335
   5   C   :   -0.000052557   -0.000119614    0.000189870
   6   C   :    0.000309922    0.000121197   -0.000006080
   7   N   :   -0.000146969    0.000030776   -0.000002157
   8   H   :   -0.000000343    0.000126203    0.000136012
   9   H   :    0.000122618    0.000032735    0.000010519
  10   H   :   -0.000188644    0.000226478   -0.000048530
  11   H   :   -0.000070148    0.000088340    0.000104221
  12   H   :   -0.000030843    0.000032409   -0.000001944
  13   H   :    0.000204271    0.000153186   -0.000026935
  14   H   :   -0.000038786    0.000025136   -0.000174381
  15   H   :   -0.000011228    0.000136627    0.000001904
  16   H   :   -0.000035468    0.000051837    0.000016718
  17   H   :   -0.000078531   -0.000227945   -0.000081218
  18   H   :    0.000048385    0.000062360    0.000020746
  19   H   :    0.000049839   -0.000105885   -0.000013009

Norm of the cartesian gradient     ...    0.000965716
RMS gradient                       ...    0.000127912
MAX gradient                       ...    0.000382711

-------
TIMINGS
-------

Total SCF gradient time            ...       55.571 sec

One electron gradient       ....       0.141 sec  (  0.3%)
Prescreening matrices       ....       0.445 sec  (  0.8%)
Two electron gradient       ....      26.601 sec  ( 47.9%)
XC gradient                 ....       3.258 sec  (  5.9%)
           ************************************************************
           *              Shut down parallel processing               *
           ************************************************************
------------------------------------------------------------------------------
                         ORCA GEOMETRY RELAXATION STEP
------------------------------------------------------------------------------

Reading the OPT-File                    .... done
Getting information on internals        .... done
Copying old internal coords+grads       .... done
Making the new internal coordinates     .... (new redundants).... done
Validating the new internal coordinates .... (new redundants).... done
Calculating the B-matrix                .... done
Calculating the G,G- and P matrices     .... done
Transforming gradient to internals      .... done
Projecting the internal gradient        .... done
Number of atoms                         ....  19
Number of internal coordinates          .... 107
Current Energy                          ....  -290.082148908 Eh
Current gradient norm                   ....     0.000965716 Eh/bohr
Maximum allowed component of the step   ....  0.300
Current trust radius                    ....  0.300
Evaluating the initial hessian          ....  (Almloef) done
Projecting the Hessian                  .... done
Forming the augmented Hessian           .... done
Diagonalizing the augmented Hessian     .... done
Last element of RFO vector              ....  0.999899755
Lowest eigenvalues of augmented Hessian:
 -0.000004305  0.011124387  0.013267173  0.013277230  0.022419859
Length of the computed step             ....  0.014160508
The final length of the internal step   ....  0.014160508
Converting the step to cartesian space:
 Initial RMS(Int)=    0.0013689480
Transforming coordinates:
 Iter   0:  RMS(Cart)=    0.0042198256 RMS(Int)=    0.0013689996
 Iter   1:  RMS(Cart)=    0.0000059369 RMS(Int)=    0.0000030031
 Iter   2:  RMS(Cart)=    0.0000000187 RMS(Int)=    0.0000000064
done
Storing new coordinates                 .... done

                                .--------------------.
          ----------------------|Geometry convergence|---------------------
          Item                value                 Tolerance   Converged
          -----------------------------------------------------------------
          RMS gradient        0.00007734            0.00003000      NO
          MAX gradient        0.00029493            0.00010000      NO
          RMS step            0.00136895            0.00060000      NO
          MAX step            0.00517448            0.00100000      NO
          ....................................................
          Max(Bonds)      0.0004      Max(Angles)    0.03
          Max(Dihed)        0.30      Max(Improp)    0.00
          -----------------------------------------------------------------

The optimization has not yet converged - more geometry cycles are needed


    ---------------------------------------------------------------------------
                         Redundant Internal Coordinates
                            (Angstroem and degrees)

        Definition                    Value    dE/dq     Step     New-Value
    ----------------------------------------------------------------------------
     1. B(C   1,C   0)                1.4957 -0.000089  0.0001    1.4958   
     2. B(C   2,C   1)                1.3271 -0.000295  0.0002    1.3273   
     3. B(C   3,C   1)                1.4956 -0.000034  0.0000    1.4957   
     4. B(C   4,C   3)                1.5492  0.000018 -0.0000    1.5492   
     5. B(C   5,C   4)                1.5309 -0.000017  0.0000    1.5310   
     6. B(N   6,C   5)                1.5155 -0.000102  0.0002    1.5157   
     7. B(N   6,C   3)                1.5234 -0.000050  0.0001    1.5235   
     8. B(H   7,C   0)                1.0884 -0.000185  0.0003    1.0887   
     9. B(H   8,C   0)                1.0946  0.000126 -0.0002    1.0944   
    10. B(H   9,C   0)                1.0948  0.000294 -0.0004    1.0944   
    11. B(H  10,C   2)                1.0866  0.000077 -0.0001    1.0865   
    12. B(H  11,C   2)                1.0829 -0.000025  0.0000    1.0829   
    13. B(H  12,C   3)                1.0917  0.000253 -0.0004    1.0913   
    14. B(H  13,C   4)                1.0872  0.000161 -0.0002    1.0870   
    15. B(H  14,C   4)                1.0889  0.000133 -0.0002    1.0887   
    16. B(H  15,C   5)                1.0873  0.000051 -0.0001    1.0873   
    17. B(H  16,C   5)                1.0880  0.000237 -0.0003    1.0877   
    18. B(H  17,N   6)                1.0183  0.000068 -0.0001    1.0182   
    19. B(H  18,N   6)                1.0197  0.000107 -0.0001    1.0196   
    20. A(C   1,C   0,H   8)          110.80 -0.000002    0.00    110.80   
    21. A(C   1,C   0,H   9)          111.49 -0.000055    0.01    111.50   
    22. A(H   8,C   0,H   9)          106.99  0.000019   -0.00    106.99   
    23. A(H   7,C   0,H   8)          108.32 -0.000005    0.00    108.32   
    24. A(C   1,C   0,H   7)          110.99  0.000004   -0.00    110.98   
    25. A(H   7,C   0,H   9)          108.10  0.000042   -0.01    108.09   
    26. A(C   2,C   1,C   3)          124.20 -0.000084    0.01    124.21   
    27. A(C   0,C   1,C   3)          112.50 -0.000093    0.01    112.52   
    28. A(C   0,C   1,C   2)          123.29  0.000176   -0.02    123.26   
    29. A(C   1,C   2,H  11)          120.57  0.000063   -0.01    120.56   
    30. A(H  10,C   2,H  11)          114.37  0.000097   -0.02    114.35   
    31. A(C   1,C   2,H  10)          125.06 -0.000160    0.03    125.09   
    32. A(C   4,C   3,N   6)           89.42  0.000053   -0.00     89.42   
    33. A(C   1,C   3,N   6)          114.37 -0.000057    0.02    114.40   
    34. A(N   6,C   3,H  12)          109.80 -0.000009   -0.01    109.79   
    35. A(C   4,C   3,H  12)          114.94  0.000014   -0.02    114.93   
    36. A(C   1,C   3,H  12)          110.54  0.000060   -0.02    110.52   
    37. A(C   1,C   3,C   4)          116.18 -0.000070    0.03    116.20   
    38. A(H  13,C   4,H  14)          109.51 -0.000044    0.01    109.52   
    39. A(C   5,C   4,H  14)          113.65  0.000042   -0.01    113.64   
    40. A(C   3,C   4,H  14)          113.61  0.000058   -0.02    113.59   
    41. A(C   5,C   4,H  13)          115.49  0.000048   -0.01    115.48   
    42. A(C   3,C   4,H  13)          114.94 -0.000007    0.01    114.95   
    43. A(C   3,C   4,C   5)           88.45 -0.000095    0.02     88.47   
    44. A(N   6,C   5,H  16)          109.20 -0.000073    0.02    109.22   
    45. A(C   4,C   5,H  16)          114.93 -0.000024    0.00    114.93   
    46. A(N   6,C   5,H  15)          112.05  0.000003   -0.01    112.04   
    47. A(C   4,C   5,H  15)          118.29 -0.000037    0.01    118.30   
    48. A(C   4,C   5,N   6)           90.40  0.000085   -0.01     90.40   
    49. A(H  15,C   5,H  16)          110.20  0.000043   -0.01    110.19   
    50. A(H  17,N   6,H  18)          108.34 -0.000001   -0.01    108.34   
    51. A(C   3,N   6,C   5)           89.97 -0.000044    0.01     89.99   
    52. A(C   5,N   6,H  18)          116.49  0.000006   -0.00    116.48   
    53. A(C   3,N   6,H  18)          114.60 -0.000005    0.01    114.61   
    54. A(C   5,N   6,H  17)          113.66  0.000041   -0.01    113.65   
    55. A(C   3,N   6,H  17)          113.03 -0.000001    0.00    113.03   
    56. D(C   2,C   1,C   0,H   8)   -116.70 -0.000004   -0.02   -116.72   
    57. D(C   3,C   1,C   0,H   9)    -54.84  0.000038   -0.10    -54.94   
    58. D(C   3,C   1,C   0,H   7)   -175.41  0.000020   -0.09   -175.50   
    59. D(C   2,C   1,C   0,H   7)      3.69 -0.000009   -0.02      3.67   
    60. D(C   3,C   1,C   0,H   8)     64.20  0.000025   -0.09     64.11   
    61. D(C   2,C   1,C   0,H   9)    124.26  0.000010   -0.03    124.23   
    62. D(H  11,C   2,C   1,C   3)    179.28 -0.000043    0.07    179.36   
    63. D(H  11,C   2,C   1,C   0)      0.28 -0.000011   -0.00      0.28   
    64. D(H  10,C   2,C   1,C   3)     -0.67  0.000021   -0.01     -0.68   
    65. D(H  10,C   2,C   1,C   0)   -179.67  0.000053   -0.09   -179.76   
    66. D(N   6,C   3,C   1,C   2)      4.20  0.000070   -0.27      3.93   
    67. D(N   6,C   3,C   1,C   0)   -176.71  0.000043   -0.20   -176.91   
    68. D(H  12,C   3,C   1,C   0)    -52.17  0.000036   -0.20    -52.38   
    69. D(C   4,C   3,C   1,C   0)     81.15  0.000050   -0.22     80.92   
    70. D(C   4,C   3,C   1,C   2)    -97.95  0.000077   -0.30    -98.24   
    71. D(H  12,C   3,C   1,C   2)    128.73  0.000063   -0.27    128.46   
    72. D(H  14,C   4,C   3,N   6)    105.33  0.000011    0.07    105.40   
    73. D(H  13,C   4,C   3,H  12)    120.93 -0.000024    0.09    121.01   
    74. D(H  13,C   4,C   3,N   6)   -127.42 -0.000004    0.08   -127.35   
    75. D(H  13,C   4,C   3,C   1)    -10.36 -0.000056    0.11    -10.25   
    76. D(H  14,C   4,C   3,C   1)   -137.61 -0.000041    0.10   -137.51   
    77. D(C   5,C   4,C   3,H  12)   -121.54 -0.000020    0.08   -121.46   
    78. D(C   5,C   4,C   3,N   6)     -9.90 -0.000001    0.07     -9.82   
    79. D(C   5,C   4,C   3,C   1)    107.17 -0.000053    0.11    107.27   
    80. D(H  14,C   4,C   3,H  12)     -6.32 -0.000008    0.08     -6.24   
    81. D(H  15,C   5,C   4,H  13)   -117.55  0.000002   -0.06   -117.61   
    82. D(H  15,C   5,C   4,C   3)    125.42  0.000049   -0.08    125.34   
    83. D(N   6,C   5,C   4,H  14)   -105.23 -0.000023   -0.06   -105.30   
    84. D(N   6,C   5,C   4,H  13)    126.97 -0.000043   -0.05    126.92   
    85. D(H  15,C   5,C   4,H  14)     10.24  0.000022   -0.07     10.17   
    86. D(N   6,C   5,C   4,C   3)      9.95  0.000004   -0.07      9.87   
    87. D(H  16,C   5,C   4,H  14)    143.30  0.000021   -0.08    143.22   
    88. D(H  16,C   5,C   4,H  13)     15.51  0.000001   -0.07     15.44   
    89. D(H  16,C   5,C   4,C   3)   -101.52  0.000048   -0.09   -101.61   
    90. D(H  18,N   6,C   5,H  16)    -11.14  0.000016    0.06    -11.09   
    91. D(H  18,N   6,C   5,H  15)    111.24  0.000021    0.05    111.29   
    92. D(H  18,N   6,C   5,C   4)   -127.81  0.000021    0.05   -127.76   
    93. D(H  17,N   6,C   5,H  16)   -138.17 -0.000028    0.08   -138.09   
    94. D(H  17,N   6,C   5,H  15)    -15.79 -0.000022    0.07    -15.71   
    95. D(C   3,N   6,C   5,H  16)    106.56 -0.000014    0.08    106.64   
    96. D(C   3,N   6,C   5,H  15)   -131.06 -0.000008    0.07   -130.99   
    97. D(C   3,N   6,C   5,C   4)    -10.11 -0.000008    0.08    -10.04   
    98. D(H  18,N   6,C   3,H  12)   -114.25  0.000023   -0.09   -114.34   
    99. D(H  18,N   6,C   3,C   4)    129.36 -0.000012   -0.07    129.29   
   100. D(H  18,N   6,C   3,C   1)     10.68  0.000052   -0.10     10.58   
   101. D(H  17,N   6,C   5,C   4)    105.16 -0.000022    0.08    105.24   
   102. D(H  17,N   6,C   3,H  12)     10.55  0.000016   -0.09     10.46   
   103. D(H  17,N   6,C   3,C   4)   -105.85 -0.000018   -0.07   -105.91   
   104. D(H  17,N   6,C   3,C   1)    135.48  0.000046   -0.10    135.38   
   105. D(C   5,N   6,C   3,H  12)    126.39  0.000040   -0.10    126.30   
   106. D(C   5,N   6,C   3,C   4)      9.99  0.000006   -0.08      9.92   
   107. D(C   5,N   6,C   3,C   1)   -108.68  0.000070   -0.11   -108.79   
    ----------------------------------------------------------------------------

         *************************************************************
         *                GEOMETRY OPTIMIZATION CYCLE   2            *
         *************************************************************
---------------------------------
CARTESIAN COORDINATES (ANGSTROEM)
---------------------------------
  C      1.038226    0.000362   -2.127881
  C      0.587105   -0.549523   -0.811948
  C      0.374961   -1.842038   -0.597213
  C      0.386131    0.517908    0.216296
  C     -0.954733    1.290698    0.147002
  C     -1.404443    0.541233    1.403970
  N     -0.002184   -0.001377    1.594922
  H      1.100536   -0.785932   -2.878256
  H      2.023623    0.467632   -2.036527
  H      0.352713    0.769221   -2.497500
  H      0.044113   -2.272801    0.343807
  H      0.529835   -2.564457   -1.388970
  H      1.275301    1.145751    0.294847
  H     -1.546209    1.103675   -0.745593
  H     -0.847061    2.364052    0.293762
  H     -1.736777    1.123367    2.260003
  H     -2.087196   -0.286257    1.224813
  H      0.511118    0.449916    2.349667
  H      0.083174   -1.011093    1.707889

----------------------------
CARTESIAN COORDINATES (A.U.)
----------------------------
  NO LB      ZA    FRAG    MASS        X           Y           Z
   0 C     6.0000    0    12.011          1.961962484897270          0.000683215151242         -4.021112702149555
   1 C     6.0000    0    12.011          1.109468014966105         -1.038448639144291         -1.534359376901562
   2 C     6.0000    0    12.011          0.708573085602083         -3.480947928300144         -1.128569605920913
   3 C     6.0000    0    12.011          0.729681712016299          0.978703905408261          0.408739475266306
   4 C     6.0000    0    12.011         -1.804183094954180          2.439064930741085          0.277792881933347
   5 C     6.0000    0    12.011         -2.654013573446945          1.022782484320413          2.653118276465445
   6 N     7.0000    0    14.007         -0.004128041240503         -0.002602822235482          3.013965580876314
   7 H     1.0000    0     1.008          2.079710794496553         -1.485196621002818         -5.439115963836496
   8 H     1.0000    0     1.008          3.824092573814559          0.883696970904426         -3.848478894368944
   9 H     1.0000    0     1.008          0.666530935587962          1.453617560617154         -4.719590201980354
  10 H     1.0000    0     1.008          0.083361221454021         -4.294971587457623          0.649700639393780
  11 H     1.0000    0     1.008          1.001242793445541         -4.846121274712544         -2.624773009613470
  12 H     1.0000    0     1.008          2.409970092959966          2.165155523205896          0.557180465967739
  13 H     1.0000    0     1.008         -2.921912403848019          2.085643418477943         -1.408967250088597
  14 H     1.0000    0     1.008         -1.600712631281822          4.467411400841240          0.555130394608821
  15 H     1.0000    0     1.008         -3.282031997412887          2.122855317870591          4.270787210483448
  16 H     1.0000    0     1.008         -3.944227925511513         -0.540947796511773          2.314560935976703
  17 H     1.0000    0     1.008          0.965873024833053          0.850217396970766          4.440227123369058
  18 H     1.0000    0     1.008          0.157176541908948         -1.910688620463417          3.227442468715875

--------------------------------
INTERNAL COORDINATES (ANGSTROEM)
--------------------------------
 C      0   0   0   0.000000     0.000     0.000
 C      1   0   0   1.495849     0.000     0.000
 C      2   1   0   1.327295   123.264     0.000
 C      2   1   3   1.495689   112.517   180.827
 C      4   2   1   1.549168   116.203    80.920
 C      5   4   2   1.530982    88.471   107.273
 N      6   5   4   1.515658    90.397     9.872
 H      1   2   3   1.088670   110.984     3.671
 H      1   2   3   1.094392   110.798   243.282
 H      1   2   3   1.094391   111.498   124.232
 H      3   2   1   1.086525   125.090   180.241
 H      3   2   1   1.082937   120.562     0.279
 H      4   2   1   1.091321   110.523   307.624
 H      5   4   2   1.086990   114.953   349.746
 H      5   4   2   1.088679   113.590   222.492
 H      6   5   4   1.087253   118.301   125.338
 H      6   5   4   1.087652   114.935   258.390
 H      7   6   5   1.018226   113.648   105.237
 H      7   6   5   1.019595   116.484   232.241

---------------------------
INTERNAL COORDINATES (A.U.)
---------------------------
 C      0   0   0   0.000000     0.000     0.000
 C      1   0   0   2.826744     0.000     0.000
 C      2   1   0   2.508223   123.264     0.000
 C      2   1   3   2.826442   112.517   180.827
 C      4   2   1   2.927503   116.203    80.920
 C      5   4   2   2.893136    88.471   107.273
 N      6   5   4   2.864179    90.397     9.872
 H      1   2   3   2.057289   110.984     3.671
 H      1   2   3   2.068102   110.798   243.282
 H      1   2   3   2.068099   111.498   124.232
 H      3   2   1   2.053234   125.090   180.241
 H      3   2   1   2.046455   120.562     0.279
 H      4   2   1   2.062298   110.523   307.624
 H      5   4   2   2.054114   114.953   349.746
 H      5   4   2   2.057305   113.590   222.492
 H      6   5   4   2.054609   118.301   125.338
 H      6   5   4   2.055365   114.935   258.390
 H      7   6   5   1.924169   113.648   105.237
 H      7   6   5   1.926755   116.484   232.241



           ************************************************************
           *        Program running with 8 parallel MPI-processes     *
           *              working on a common directory               *
           ************************************************************
           ************************************************************
           *              Shut down parallel processing               *
           ************************************************************


           ************************************************************
           *        Program running with 8 parallel MPI-processes     *
           *              working on a common directory               *
           ************************************************************

Diagonalization of the overlap matrix:
Smallest eigenvalue                        ... 7.672e-05
Time for diagonalization                   ...    0.225 sec
Threshold for overlap eigenvalues          ... 1.000e-08
Number of eigenvalues below threshold      ... 0
Time for construction of square roots      ...    0.014 sec
Total time needed                          ...    0.239 sec

-------------------
DFT GRID GENERATION
-------------------

General Integration Accuracy     IntAcc      ...  4.340
Radial Grid Type                 RadialGrid  ... Gauss-Chebyshev
Angular Grid (max. acc.)         AngularGrid ... Lebedev-194
Angular grid pruning method      GridPruning ... 3 (G Style)
Weight generation scheme         WeightScheme... Becke
Basis function cutoff            BFCut       ...    1.0000e-11
Integration weight cutoff        WCut        ...    1.0000e-14
Grids for H and He will be reduced by one unit

# of grid points (after initial pruning)     ...  41338 (   0.0 sec)
# of grid points (after weights+screening)   ...  37506 (   0.1 sec)
nearest neighbour list constructed           ...    0.0 sec
Grid point re-assignment to atoms done       ...    0.0 sec
Grid point division into batches done        ...    0.1 sec
Reduced shell lists constructed in    0.1 sec

Total number of grid points                  ...    37506
Total number of batches                      ...      598
Average number of points per batch           ...       62
Average number of grid points per atom       ...     1974
Average number of shells per batch           ...    99.34 (79.47%)
Average number of basis functions per batch  ...   239.32 (82.81%)
Average number of large shells per batch     ...    80.72 (81.26%)
Average number of large basis fcns per batch ...   193.12 (80.70%)
Maximum spatial batch extension              ...   5.79,  2.83,  3.77 au
Average spatial batch extension              ...   0.18,  0.17,  0.17 au

Time for grid setup =    0.562 sec

--------------
SCF ITERATIONS
--------------
ITER       Energy         Delta-E        Max-DP      RMS-DP      [F,P]     Damp
               ***  Starting incremental Fock matrix formation  ***
                      *** Initiating the SOSCF procedure ***
                      *** Re-Reading the Fockian *** 
                      *** Removing any level shift *** 
ITER      Energy       Delta-E        Grad      Rot      Max-DP    RMS-DP
  0   -290.08256026 -290.0825602563  0.000336  0.000336  0.000576  0.000017
               *** Restarting incremental Fock matrix formation ***
  1   -290.08257254  -0.0000122811  0.000105  0.000271  0.000284  0.000008
  2   -290.08257389  -0.0000013527  0.000024  0.000084  0.000079  0.000002
  3   -290.08257390  -0.0000000081  0.000044  0.000072  0.000048  0.000001
  4   -290.08257394  -0.0000000397  0.000011  0.000030  0.000022  0.000000
  5   -290.08257394   0.0000000012  0.000013  0.000016  0.000013  0.000000
                  ***Gradient check signals convergence***
              ***Rediagonalizing the Fockian in SOSCF/NRSCF***

               *****************************************************
               *                     SUCCESS                       *
               *           SCF CONVERGED AFTER   6 CYCLES          *
               *****************************************************

Setting up the final grid:

General Integration Accuracy     IntAcc      ...  5.010
Radial Grid Type                 RadialGrid  ... Gauss-Chebyshev
Angular Grid (max. acc.)         AngularGrid ... Lebedev-434
Angular grid pruning method      GridPruning ... 3 (G Style)
Weight generation scheme         WeightScheme... Becke
Basis function cutoff            BFCut       ...    1.0000e-11
Integration weight cutoff        WCut        ...    1.0000e-14
Grids for H and He will be reduced by one unit

# of grid points (after initial pruning)     ... 155082 (   0.0 sec)
# of grid points (after weights+screening)   ... 139106 (   1.5 sec)
nearest neighbour list constructed           ...    0.0 sec
Grid point re-assignment to atoms done       ...    0.0 sec
Grid point division into batches done        ...    0.8 sec
Reduced shell lists constructed in    1.1 sec

Total number of grid points                  ...   139106
Total number of batches                      ...     2185
Average number of points per batch           ...       63
Average number of grid points per atom       ...     7321
Average number of shells per batch           ...    96.87 (77.50%)
Average number of basis functions per batch  ...   233.15 (80.67%)
Average number of large shells per batch     ...    77.46 (79.97%)
Average number of large basis fcns per batch ...   184.34 (79.07%)
Maximum spatial batch extension              ...   6.68,  3.32,  3.77 au
Average spatial batch extension              ...   0.12,  0.11,  0.11 au

Final grid set up in    3.3 sec
Final integration                            ... done (   1.4 sec)
Change in XC energy                          ...     0.000421692
Integrated number of electrons               ...    53.999924297
Previous integrated no of electrons          ...    54.000168416
Total Energy       :         -290.08215225 Eh           -7893.53666 eV
  Last Energy change         ...   -2.5686e-09  Tolerance :   1.0000e-08
  Last MAX-Density change    ...    3.2152e-06  Tolerance :   1.0000e-07
             **** THE GBW FILE WAS UPDATED (2033_+.gbw) ****
             **** DENSITY FILE WAS UPDATED (2033_+.scfp.tmp) ****
             **** ENERGY FILE WAS UPDATED (2033_+.en.tmp) ****
Total SCF time: 0 days 0 hours 1 min 12 sec 
           ************************************************************
           *              Shut down parallel processing               *
           ************************************************************

-------------------------   --------------------
FINAL SINGLE POINT ENERGY      -290.082152246735
-------------------------   --------------------



           ************************************************************
           *        Program running with 8 parallel MPI-processes     *
           *              working on a common directory               *
           ************************************************************
------------------------------------------------------------------------------
                         ORCA SCF GRADIENT CALCULATION
------------------------------------------------------------------------------

Gradient of the Kohn-Sham DFT energy:
Kohn-Sham wavefunction type      ... RKS
Hartree-Fock exchange scaling    ...    0.250
Number of operators              ...    1
Number of atoms                  ...   19
Basis set dimensions             ...  289
Integral neglect threshold       ... 2.5e-11
Integral primitive cutoff        ... 2.5e-12

Nuclear repulsion gradient       ... done
One Electron Gradient            ... done
Pre-screening matrix             ... done
Starting the two electron gradient:
Two electron gradient done
Exchange-correlation gradient    ... done

------------------
CARTESIAN GRADIENT
------------------

   1   C   :    0.000040210   -0.000034042    0.000018268
   2   C   :   -0.000023122   -0.000120664   -0.000010185
   3   C   :   -0.000043973   -0.000031334   -0.000070717
   4   C   :    0.000078082    0.000112983    0.000056630
   5   C   :   -0.000102096   -0.000098272    0.000035839
   6   C   :    0.000076326    0.000045032    0.000059083
   7   N   :   -0.000082992   -0.000052437    0.000028579
   8   H   :   -0.000001282    0.000010262   -0.000005820
   9   H   :    0.000005825   -0.000002420    0.000000750
  10   H   :   -0.000010832    0.000031045    0.000032894
  11   H   :   -0.000025460    0.000072517    0.000026354
  12   H   :   -0.000004123    0.000002969    0.000000043
  13   H   :    0.000007753   -0.000001289   -0.000061967
  14   H   :    0.000029071    0.000054708   -0.000035434
  15   H   :   -0.000004765    0.000004866    0.000013346
  16   H   :   -0.000042344    0.000001896   -0.000012059
  17   H   :    0.000047800   -0.000031676   -0.000048425
  18   H   :   -0.000002079    0.000040037   -0.000027857
  19   H   :    0.000057999   -0.000004180    0.000000677

Norm of the cartesian gradient     ...    0.000350697
RMS gradient                       ...    0.000046451
MAX gradient                       ...    0.000120664

-------
TIMINGS
-------

Total SCF gradient time            ...       61.105 sec

One electron gradient       ....       0.264 sec  (  0.4%)
Prescreening matrices       ....       0.435 sec  (  0.7%)
Two electron gradient       ....      26.492 sec  ( 43.4%)
XC gradient                 ....       3.307 sec  (  5.4%)
           ************************************************************
           *              Shut down parallel processing               *
           ************************************************************
------------------------------------------------------------------------------
                         ORCA GEOMETRY RELAXATION STEP
------------------------------------------------------------------------------

Reading the OPT-File                    .... done
Getting information on internals        .... done
Copying old internal coords+grads       .... done
Making the new internal coordinates     .... (new redundants).... done
Validating the new internal coordinates .... (new redundants).... done
Calculating the B-matrix                .... done
Calculating the G,G- and P matrices     .... done
Transforming gradient to internals      .... done
Projecting the internal gradient        .... done
Number of atoms                         ....  19
Number of internal coordinates          .... 107
Current Energy                          ....  -290.082152247 Eh
Current gradient norm                   ....     0.000350697 Eh/bohr
Maximum allowed component of the step   ....  0.300
Current trust radius                    ....  0.300
Updating the Hessian (BFGS)             .... done
Forming the augmented Hessian           .... done
Diagonalizing the augmented Hessian     .... done
Last element of RFO vector              ....  0.998499994
Lowest eigenvalues of augmented Hessian:
 -0.000010493  0.003380113  0.011886486  0.013268366  0.022326652
Length of the computed step             ....  0.054834066
The final length of the internal step   ....  0.054834066
Converting the step to cartesian space:
 Initial RMS(Int)=    0.0053010092
Transforming coordinates:
 Iter   0:  RMS(Cart)=    0.0160512631 RMS(Int)=    0.0053021111
 Iter   1:  RMS(Cart)=    0.0000863776 RMS(Int)=    0.0000430714
 Iter   2:  RMS(Cart)=    0.0000010034 RMS(Int)=    0.0000003553
 Iter   3:  RMS(Cart)=    0.0000000109 RMS(Int)=    0.0000000058
done
Storing new coordinates                 .... done

                                .--------------------.
          ----------------------|Geometry convergence|---------------------
          Item                value                 Tolerance   Converged
          -----------------------------------------------------------------
          Energy change      -0.00000334            0.00000100      NO
          RMS gradient        0.00002956            0.00003000      YES
          MAX gradient        0.00010585            0.00010000      NO
          RMS step            0.00530101            0.00060000      NO
          MAX step            0.01962429            0.00100000      NO
          ....................................................
          Max(Bonds)      0.0006      Max(Angles)    0.10
          Max(Dihed)        1.12      Max(Improp)    0.00
          -----------------------------------------------------------------

The optimization has not yet converged - more geometry cycles are needed


    ---------------------------------------------------------------------------
                         Redundant Internal Coordinates
                            (Angstroem and degrees)

        Definition                    Value    dE/dq     Step     New-Value
    ----------------------------------------------------------------------------
     1. B(C   1,C   0)                1.4958 -0.000028  0.0002    1.4961   
     2. B(C   2,C   1)                1.3273 -0.000039  0.0003    1.3276   
     3. B(C   3,C   1)                1.4957  0.000046 -0.0001    1.4956   
     4. B(C   4,C   3)                1.5492  0.000018 -0.0001    1.5490   
     5. B(C   5,C   4)                1.5310 -0.000008  0.0001    1.5311   
     6. B(N   6,C   5)                1.5157 -0.000034  0.0004    1.5160   
     7. B(N   6,C   3)                1.5235 -0.000009  0.0001    1.5236   
     8. B(H   7,C   0)                1.0887 -0.000004  0.0004    1.0890   
     9. B(H   8,C   0)                1.0944  0.000005 -0.0003    1.0941   
    10. B(H   9,C   0)                1.0944  0.000017 -0.0006    1.0938   
    11. B(H  10,C   2)                1.0865  0.000002 -0.0001    1.0864   
    12. B(H  11,C   2)                1.0829 -0.000003  0.0001    1.0830   
    13. B(H  12,C   3)                1.0913  0.000001 -0.0005    1.0908   
    14. B(H  13,C   4)                1.0870  0.000005 -0.0003    1.0867   
    15. B(H  14,C   4)                1.0887  0.000005 -0.0003    1.0884   
    16. B(H  15,C   5)                1.0873  0.000004 -0.0001    1.0871   
    17. B(H  16,C   5)                1.0877  0.000003 -0.0005    1.0872   
    18. B(H  17,N   6)                1.0182 -0.000004 -0.0001    1.0181   
    19. B(H  18,N   6)                1.0196  0.000008 -0.0002    1.0194   
    20. A(C   1,C   0,H   8)          110.80 -0.000002    0.01    110.80   
    21. A(C   1,C   0,H   9)          111.50 -0.000048    0.04    111.54   
    22. A(H   8,C   0,H   9)          106.99  0.000006    0.01    107.00   
    23. A(H   7,C   0,H   8)          108.32 -0.000004   -0.00    108.32   
    24. A(C   1,C   0,H   7)          110.98  0.000030   -0.02    110.96   
    25. A(H   7,C   0,H   9)          108.09  0.000019   -0.03    108.06   
    26. A(C   2,C   1,C   3)          124.21 -0.000039    0.03    124.24   
    27. A(C   0,C   1,C   3)          112.52 -0.000049    0.04    112.56   
    28. A(C   0,C   1,C   2)          123.26  0.000088   -0.06    123.20   
    29. A(C   1,C   2,H  11)          120.56  0.000052   -0.03    120.53   
    30. A(H  10,C   2,H  11)          114.35  0.000054   -0.05    114.30   
    31. A(C   1,C   2,H  10)          125.09 -0.000106    0.08    125.17   
    32. A(C   4,C   3,N   6)           89.42  0.000011    0.02     89.44   
    33. A(C   1,C   3,N   6)          114.40 -0.000015    0.06    114.46   
    34. A(N   6,C   3,H  12)          109.79  0.000002   -0.03    109.76   
    35. A(C   4,C   3,H  12)          114.93  0.000025   -0.07    114.86   
    36. A(C   1,C   3,H  12)          110.52  0.000028   -0.06    110.46   
    37. A(C   1,C   3,C   4)          116.20 -0.000054    0.10    116.30   
    38. A(H  13,C   4,H  14)          109.52 -0.000020    0.02    109.54   
    39. A(C   5,C   4,H  14)          113.64  0.000004   -0.02    113.63   
    40. A(C   3,C   4,H  14)          113.59  0.000024   -0.04    113.55   
    41. A(C   5,C   4,H  13)          115.48  0.000033   -0.05    115.42   
    42. A(C   3,C   4,H  13)          114.95 -0.000010    0.04    114.99   
    43. A(C   3,C   4,C   5)           88.47 -0.000028    0.05     88.52   
    44. A(N   6,C   5,H  16)          109.22 -0.000039    0.05    109.26   
    45. A(C   4,C   5,H  16)          114.93 -0.000024    0.01    114.95   
    46. A(N   6,C   5,H  15)          112.04  0.000019   -0.04    112.00   
    47. A(C   4,C   5,H  15)          118.30 -0.000007    0.02    118.32   
    48. A(C   4,C   5,N   6)           90.40  0.000029   -0.00     90.40   
    49. A(H  15,C   5,H  16)          110.19  0.000020   -0.03    110.16   
    50. A(H  17,N   6,H  18)          108.34  0.000002   -0.02    108.32   
    51. A(C   3,N   6,C   5)           89.99 -0.000011    0.03     90.02   
    52. A(C   5,N   6,H  18)          116.48  0.000011   -0.03    116.45   
    53. A(C   3,N   6,H  18)          114.61 -0.000011    0.04    114.66   
    54. A(C   5,N   6,H  17)          113.65  0.000014   -0.02    113.62   
    55. A(C   3,N   6,H  17)          113.03 -0.000008    0.01    113.04   
    56. D(C   2,C   1,C   0,H   8)   -116.72 -0.000008   -0.10   -116.82   
    57. D(C   3,C   1,C   0,H   9)    -54.94  0.000032   -0.34    -55.28   
    58. D(C   3,C   1,C   0,H   7)   -175.50  0.000020   -0.31   -175.82   
    59. D(C   2,C   1,C   0,H   7)      3.67  0.000005   -0.11      3.56   
    60. D(C   3,C   1,C   0,H   8)     64.11  0.000007   -0.30     63.81   
    61. D(C   2,C   1,C   0,H   9)    124.23  0.000017   -0.14    124.09   
    62. D(H  11,C   2,C   1,C   3)    179.36 -0.000010    0.16    179.51   
    63. D(H  11,C   2,C   1,C   0)      0.28  0.000007   -0.06      0.22   
    64. D(H  10,C   2,C   1,C   3)     -0.68  0.000010   -0.02     -0.70   
    65. D(H  10,C   2,C   1,C   0)   -179.76  0.000027   -0.24   -180.00   
    66. D(N   6,C   3,C   1,C   2)      3.93  0.000048   -1.01      2.92   
    67. D(N   6,C   3,C   1,C   0)   -176.91  0.000034   -0.81   -177.72   
    68. D(H  12,C   3,C   1,C   0)    -52.38  0.000047   -0.86    -53.23   
    69. D(C   4,C   3,C   1,C   0)     80.92  0.000060   -0.93     80.00   
    70. D(C   4,C   3,C   1,C   2)    -98.24  0.000074   -1.12    -99.37   
    71. D(H  12,C   3,C   1,C   2)    128.46  0.000061   -1.06    127.40   
    72. D(H  14,C   4,C   3,N   6)    105.40 -0.000000    0.28    105.68   
    73. D(H  13,C   4,C   3,H  12)    121.01 -0.000028    0.35    121.36   
    74. D(H  13,C   4,C   3,N   6)   -127.35 -0.000016    0.31   -127.04   
    75. D(H  13,C   4,C   3,C   1)    -10.25 -0.000040    0.41     -9.85   
    76. D(H  14,C   4,C   3,C   1)   -137.51 -0.000025    0.38   -137.13   
    77. D(C   5,C   4,C   3,H  12)   -121.46 -0.000007    0.32   -121.14   
    78. D(C   5,C   4,C   3,N   6)     -9.82  0.000005    0.28     -9.54   
    79. D(C   5,C   4,C   3,C   1)    107.27 -0.000020    0.38    107.66   
    80. D(H  14,C   4,C   3,H  12)     -6.24 -0.000013    0.32     -5.92   
    81. D(H  15,C   5,C   4,H  13)   -117.61  0.000016   -0.27   -117.88   
    82. D(H  15,C   5,C   4,C   3)    125.34  0.000035   -0.33    125.01   
    83. D(N   6,C   5,C   4,H  14)   -105.30 -0.000017   -0.26   -105.56   
    84. D(N   6,C   5,C   4,H  13)    126.92 -0.000022   -0.23    126.69   
    85. D(H  15,C   5,C   4,H  14)     10.17  0.000021   -0.30      9.87   
    86. D(N   6,C   5,C   4,C   3)      9.87 -0.000003   -0.29      9.59   
    87. D(H  16,C   5,C   4,H  14)    143.22  0.000017   -0.31    142.91   
    88. D(H  16,C   5,C   4,H  13)     15.44  0.000012   -0.28     15.16   
    89. D(H  16,C   5,C   4,C   3)   -101.61  0.000031   -0.34   -101.95   
    90. D(H  18,N   6,C   5,H  16)    -11.09 -0.000004    0.26    -10.83   
    91. D(H  18,N   6,C   5,H  15)    111.29  0.000006    0.22    111.51   
    92. D(H  18,N   6,C   5,C   4)   -127.76  0.000017    0.23   -127.53   
    93. D(H  17,N   6,C   5,H  16)   -138.09 -0.000031    0.34   -137.75   
    94. D(H  17,N   6,C   5,H  15)    -15.71 -0.000021    0.30    -15.41   
    95. D(C   3,N   6,C   5,H  16)    106.64 -0.000020    0.32    106.95   
    96. D(C   3,N   6,C   5,H  15)   -130.99 -0.000009    0.28   -130.70   
    97. D(C   3,N   6,C   5,C   4)    -10.04  0.000002    0.29     -9.75   
    98. D(H  18,N   6,C   3,H  12)   -114.34  0.000033   -0.37   -114.70   
    99. D(H  18,N   6,C   3,C   4)    129.29  0.000001   -0.30    128.99   
   100. D(H  18,N   6,C   3,C   1)     10.58  0.000059   -0.43     10.15   
   101. D(H  17,N   6,C   5,C   4)    105.24 -0.000010    0.31    105.55   
   102. D(H  17,N   6,C   3,H  12)     10.46  0.000019   -0.35     10.11   
   103. D(H  17,N   6,C   3,C   4)   -105.91 -0.000013   -0.28   -106.19   
   104. D(H  17,N   6,C   3,C   1)    135.38  0.000046   -0.41    134.97   
   105. D(C   5,N   6,C   3,H  12)    126.30  0.000028   -0.36    125.94   
   106. D(C   5,N   6,C   3,C   4)      9.92 -0.000003   -0.29      9.63   
   107. D(C   5,N   6,C   3,C   1)   -108.79  0.000055   -0.42   -109.21   
    ----------------------------------------------------------------------------

         *************************************************************
         *                GEOMETRY OPTIMIZATION CYCLE   3            *
         *************************************************************
---------------------------------
CARTESIAN COORDINATES (ANGSTROEM)
---------------------------------
  C      1.029599    0.001736   -2.129567
  C      0.588842   -0.551518   -0.811263
  C      0.389948   -1.846417   -0.596199
  C      0.386372    0.513507    0.219024
  C     -0.949591    1.294145    0.145920
  C     -1.407180    0.550352    1.403544
  N     -0.010394   -0.007057    1.594843
  H      1.098064   -0.785304   -2.879141
  H      2.009902    0.479760   -2.042206
  H      0.334973    0.761812   -2.498475
  H      0.070559   -2.282422    0.346193
  H      0.547882   -2.566498   -1.389557
  H      1.277623    1.136791    0.303465
  H     -1.541145    1.109178   -0.746665
  H     -0.834980    2.366746    0.290948
  H     -1.732670    1.136293    2.259468
  H     -2.099107   -0.269116    1.225453
  H      0.505505    0.436111    2.352499
  H      0.064029   -1.017765    1.704804

----------------------------
CARTESIAN COORDINATES (A.U.)
----------------------------
  NO LB      ZA    FRAG    MASS        X           Y           Z
   0 C     6.0000    0    12.011          1.945660940939610          0.003281491335876         -4.024298645287459
   1 C     6.0000    0    12.011          1.112749566926267         -1.042217094114491         -1.533064495652035
   2 C     6.0000    0    12.011          0.736894407724187         -3.489221933359899         -1.126652347017105
   3 C     6.0000    0    12.011          0.730136449367687          0.970388031619881          0.413895742076381
   4 C     6.0000    0    12.011         -1.794466333896260          2.445580166317420          0.275749509752114
   5 C     6.0000    0    12.011         -2.659184305945201          1.040014691422315          2.652312938447030
   6 N     7.0000    0    14.007         -0.019642011817921         -0.013335830979758          3.013816022607617
   7 H     1.0000    0     1.008          2.075041012834734         -1.484010408760611         -5.440787602092594
   8 H     1.0000    0     1.008          3.798165053938838          0.906614748284256         -3.859210274547420
   9 H     1.0000    0     1.008          0.633007038290256          1.439616122990753         -4.721433340460098
  10 H     1.0000    0     1.008          0.133336484518195         -4.313153234898486          0.654210469314060
  11 H     1.0000    0     1.008          1.035346909390587         -4.849978868822937         -2.625881397592637
  12 H     1.0000    0     1.008          2.414357818868265          2.148222983176091          0.573465493917393
  13 H     1.0000    0     1.008         -2.912342300156653          2.096043466460302         -1.410992009511472
  14 H     1.0000    0     1.008         -1.577882600460586          4.472501856638897          0.549812203130181
  15 H     1.0000    0     1.008         -3.274271094241228          2.147282887059580          4.269775953562605
  16 H     1.0000    0     1.008         -3.966737048373830         -0.508555212503176          2.315770261975086
  17 H     1.0000    0     1.008          0.955265574194114          0.824130820590509          4.445578198077035
  18 H     1.0000    0     1.008          0.120998046185427         -1.923297847775592          3.221611767498263

--------------------------------
INTERNAL COORDINATES (ANGSTROEM)
--------------------------------
 C      0   0   0   0.000000     0.000     0.000
 C      1   0   0   1.496089     0.000     0.000
 C      2   1   0   1.327620   123.200     0.000
 C      2   1   3   1.495581   112.555   180.629
 C      4   2   1   1.549043   116.303    79.995
 C      5   4   2   1.531089    88.520   107.656
 N      6   5   4   1.516018    90.396     9.587
 H      1   2   3   1.089028   110.963     3.556
 H      1   2   3   1.094135   110.803   243.178
 H      1   2   3   1.093761   111.536   124.092
 H      3   2   1   1.086376   125.171   180.003
 H      3   2   1   1.082995   120.530     0.217
 H      4   2   1   1.090845   110.463   306.766
 H      5   4   2   1.086673   114.991   350.155
 H      5   4   2   1.088412   113.548   222.873
 H      6   5   4   1.087142   118.317   125.012
 H      6   5   4   1.087201   114.950   258.051
 H      7   6   5   1.018132   113.623   105.549
 H      7   6   5   1.019393   116.451   232.473

---------------------------
INTERNAL COORDINATES (A.U.)
---------------------------
 C      0   0   0   0.000000     0.000     0.000
 C      1   0   0   2.827199     0.000     0.000
 C      2   1   0   2.508838   123.200     0.000
 C      2   1   3   2.826239   112.555   180.629
 C      4   2   1   2.927268   116.303    79.995
 C      5   4   2   2.893338    88.520   107.656
 N      6   5   4   2.864859    90.396     9.587
 H      1   2   3   2.057964   110.963     3.556
 H      1   2   3   2.067616   110.803   243.178
 H      1   2   3   2.066909   111.536   124.092
 H      3   2   1   2.052953   125.171   180.003
 H      3   2   1   2.046563   120.530     0.217
 H      4   2   1   2.061397   110.463   306.766
 H      5   4   2   2.053514   114.991   350.155
 H      5   4   2   2.056801   113.548   222.873
 H      6   5   4   2.054400   118.317   125.012
 H      6   5   4   2.054513   114.950   258.051
 H      7   6   5   1.923990   113.623   105.549
 H      7   6   5   1.926373   116.451   232.473



           ************************************************************
           *        Program running with 8 parallel MPI-processes     *
           *              working on a common directory               *
           ************************************************************
           ************************************************************
           *              Shut down parallel processing               *
           ************************************************************


           ************************************************************
           *        Program running with 8 parallel MPI-processes     *
           *              working on a common directory               *
           ************************************************************

Diagonalization of the overlap matrix:
Smallest eigenvalue                        ... 7.647e-05
Time for diagonalization                   ...    0.156 sec
Threshold for overlap eigenvalues          ... 1.000e-08
Number of eigenvalues below threshold      ... 0
Time for construction of square roots      ...    0.027 sec
Total time needed                          ...    0.183 sec

-------------------
DFT GRID GENERATION
-------------------

General Integration Accuracy     IntAcc      ...  4.340
Radial Grid Type                 RadialGrid  ... Gauss-Chebyshev
Angular Grid (max. acc.)         AngularGrid ... Lebedev-194
Angular grid pruning method      GridPruning ... 3 (G Style)
Weight generation scheme         WeightScheme... Becke
Basis function cutoff            BFCut       ...    1.0000e-11
Integration weight cutoff        WCut        ...    1.0000e-14
Grids for H and He will be reduced by one unit

# of grid points (after initial pruning)     ...  41338 (   0.0 sec)
# of grid points (after weights+screening)   ...  37509 (   0.1 sec)
nearest neighbour list constructed           ...    0.0 sec
Grid point re-assignment to atoms done       ...    0.0 sec
Grid point division into batches done        ...    0.1 sec
Reduced shell lists constructed in    0.1 sec

Total number of grid points                  ...    37509
Total number of batches                      ...      600
Average number of points per batch           ...       62
Average number of grid points per atom       ...     1974
Average number of shells per batch           ...    99.04 (79.23%)
Average number of basis functions per batch  ...   238.54 (82.54%)
Average number of large shells per batch     ...    80.49 (81.27%)
Average number of large basis fcns per batch ...   192.41 (80.66%)
Maximum spatial batch extension              ...   5.62,  2.50,  3.78 au
Average spatial batch extension              ...   0.19,  0.17,  0.18 au

Time for grid setup =    0.567 sec

--------------
SCF ITERATIONS
--------------
ITER       Energy         Delta-E        Max-DP      RMS-DP      [F,P]     Damp
               ***  Starting incremental Fock matrix formation  ***
                      *** Initiating the SOSCF procedure ***
                      *** Re-Reading the Fockian *** 
                      *** Removing any level shift *** 
ITER      Energy       Delta-E        Grad      Rot      Max-DP    RMS-DP
  0   -290.08237903 -290.0823790342  0.001266  0.001266  0.002189  0.000064
               *** Restarting incremental Fock matrix formation ***
  1   -290.08255710  -0.0001780611  0.000405  0.001062  0.000974  0.000030
  2   -290.08257688  -0.0000197828  0.000084  0.000287  0.000287  0.000007
  3   -290.08257709  -0.0000002146  0.000153  0.000266  0.000161  0.000003
  4   -290.08257744  -0.0000003499  0.000049  0.000105  0.000080  0.000001
  5   -290.08257744   0.0000000000  0.000034  0.000040  0.000042  0.000001
                  ***Gradient check signals convergence***
              ***Rediagonalizing the Fockian in SOSCF/NRSCF***

               *****************************************************
               *                     SUCCESS                       *
               *           SCF CONVERGED AFTER   6 CYCLES          *
               *****************************************************

Setting up the final grid:

General Integration Accuracy     IntAcc      ...  5.010
Radial Grid Type                 RadialGrid  ... Gauss-Chebyshev
Angular Grid (max. acc.)         AngularGrid ... Lebedev-434
Angular grid pruning method      GridPruning ... 3 (G Style)
Weight generation scheme         WeightScheme... Becke
Basis function cutoff            BFCut       ...    1.0000e-11
Integration weight cutoff        WCut        ...    1.0000e-14
Grids for H and He will be reduced by one unit

# of grid points (after initial pruning)     ... 155082 (   0.0 sec)
# of grid points (after weights+screening)   ... 139118 (   6.4 sec)
nearest neighbour list constructed           ...    0.0 sec
Grid point re-assignment to atoms done       ...    0.0 sec
Grid point division into batches done        ...    0.8 sec
Reduced shell lists constructed in    1.1 sec

Total number of grid points                  ...   139118
Total number of batches                      ...     2183
Average number of points per batch           ...       63
Average number of grid points per atom       ...     7322
Average number of shells per batch           ...    96.82 (77.46%)
Average number of basis functions per batch  ...   233.04 (80.64%)
Average number of large shells per batch     ...    77.48 (80.03%)
Average number of large basis fcns per batch ...   184.36 (79.11%)
Maximum spatial batch extension              ...   6.86,  3.32,  4.07 au
Average spatial batch extension              ...   0.12,  0.11,  0.11 au

Final grid set up in    9.0 sec
Final integration                            ... done (   1.6 sec)
Change in XC energy                          ...     0.000418332
Integrated number of electrons               ...    53.999930564
Previous integrated no of electrons          ...    54.000090299
Total Energy       :         -290.08215914 Eh           -7893.53685 eV
  Last Energy change         ...   -2.7304e-08  Tolerance :   1.0000e-08
  Last MAX-Density change    ...    7.6359e-06  Tolerance :   1.0000e-07
             **** THE GBW FILE WAS UPDATED (2033_+.gbw) ****
             **** DENSITY FILE WAS UPDATED (2033_+.scfp.tmp) ****
             **** ENERGY FILE WAS UPDATED (2033_+.en.tmp) ****
Total SCF time: 0 days 0 hours 1 min 25 sec 
           ************************************************************
           *              Shut down parallel processing               *
[...]
     40       0.085611  -0.009346  -0.096064  -0.272051   0.001581   0.125761
     41      -0.036238   0.067000   0.485145  -0.037240   0.151118  -0.043352
     42       0.016809   0.116296   0.175035  -0.038656   0.138022   0.277275
     43      -0.088943  -0.138927  -0.254757  -0.105457  -0.153665  -0.247092
     44       0.262055  -0.020813   0.359379   0.420533  -0.120304  -0.628742
     45      -0.082560   0.038314  -0.019707  -0.100585  -0.029867   0.101846
     46       0.013349   0.046085  -0.187179  -0.137697  -0.112572   0.000445
     47      -0.048666   0.046927  -0.059998   0.006550  -0.007988  -0.049165
     48       0.136060   0.057969  -0.254022  -0.052115  -0.249091  -0.109648
     49       0.112550  -0.015872  -0.232775  -0.128523  -0.159270   0.058078
     50      -0.011807   0.009647  -0.068500  -0.037358  -0.011055   0.056910
     51      -0.106790  -0.017524   0.141662  -0.080273   0.099627   0.076280
     52       0.044158  -0.057208  -0.169485   0.062349  -0.031655  -0.024898
     53      -0.085690   0.028413  -0.035375   0.313447   0.004006   0.111728
     54       0.261892  -0.230307   0.111989  -0.050173   0.091418   0.107681
     55      -0.508803   0.296556  -0.099488   0.090865  -0.062931  -0.096434
     56       0.559704  -0.366434  -0.021614   0.036617   0.112741   0.256383
                 42         43         44         45         46         47    
      0       0.008855   0.005852  -0.000663   0.018591   0.003933  -0.003443
      1      -0.022713  -0.032765  -0.030695  -0.059046   0.009706  -0.010739
      2      -0.009920  -0.012729   0.079086  -0.054092   0.013089   0.007010
      3       0.005887   0.001417  -0.009653   0.008910   0.002153  -0.000541
      4       0.011009   0.005843  -0.031115   0.021634  -0.000642  -0.004427
      5      -0.008456  -0.005137   0.027385  -0.011905   0.000822  -0.006470
      6       0.003272  -0.008071   0.032933  -0.006915   0.008376  -0.006527
      7       0.014786   0.001696   0.003574  -0.006531  -0.002840   0.007940
      8      -0.007246   0.014052  -0.037866   0.004604  -0.012361   0.008696
      9       0.000105   0.006470   0.006970   0.007045  -0.001726   0.001911
     10      -0.023084   0.004243  -0.018703  -0.001260  -0.008873  -0.004328
     11      -0.014459  -0.005123  -0.007176  -0.002981  -0.002319  -0.008383
     12      -0.009272   0.008843   0.007023  -0.001582  -0.005973   0.002798
     13       0.008670  -0.011756  -0.021205  -0.007421   0.003520   0.002375
     14       0.023812   0.018236  -0.086347   0.043745  -0.001313  -0.014732
     15      -0.002566   0.010956  -0.033940   0.041417  -0.003762  -0.010388
     16       0.003428  -0.015999   0.080244  -0.047146   0.009414   0.017100
     17       0.023543  -0.008737   0.036830  -0.012053   0.010481   0.019313
     18      -0.027933  -0.004099   0.021917  -0.038450  -0.012643  -0.006710
     19      -0.011778   0.003783  -0.040304   0.032512  -0.005649  -0.008139
     20       0.061718  -0.007246   0.014864   0.013605   0.026606   0.017756
     21      -0.002592  -0.012619  -0.003617   0.005561   0.008625  -0.015879
     22       0.111226   0.117351   0.071825  -0.002582   0.017107   0.096746
     23      -0.312173   0.370160  -0.431115  -0.407812   0.465309   0.027107
     24       0.021805  -0.004258   0.032659  -0.024788   0.033832   0.017165
     25      -0.024309   0.029214  -0.026685   0.061712  -0.143640  -0.034836
     26       0.036366   0.200787  -0.119633   0.331093  -0.202841  -0.025698
     27      -0.023024  -0.011220  -0.005551  -0.004326  -0.016937   0.000471
     28       0.155715   0.108813   0.075180   0.110152   0.080437   0.013762
     29      -0.208874  -0.014234  -0.035797  -0.333851  -0.770687   0.316763
     30      -0.003168  -0.006765   0.013583  -0.002409   0.003734  -0.008805
     31      -0.008517  -0.013260  -0.017895  -0.009009  -0.006323  -0.003905
     32       0.001033   0.009915  -0.004830  -0.009730  -0.004122   0.013283
     33       0.002216   0.003363  -0.018986   0.000819  -0.003496   0.007082
     34       0.011982  -0.006956   0.004659   0.013005   0.006768  -0.006209
     35       0.001018  -0.021105   0.058375  -0.016621   0.009686   0.000159
     36      -0.047770  -0.013035  -0.114374  -0.054565   0.008418   0.019475
     37       0.030852   0.064528   0.189097   0.068337  -0.027048   0.000823
     38       0.081852   0.065637   0.252051   0.117059  -0.020668  -0.025974
     39       0.422018  -0.227345  -0.295838  -0.116207  -0.007708   0.021986
     40      -0.457636   0.246993   0.329130   0.148567   0.012581  -0.030688
     41      -0.269927   0.290172   0.003710   0.157633  -0.012752  -0.014905
     42      -0.007277   0.107048  -0.351848   0.023249  -0.092364   0.041136
     43      -0.018875  -0.121715   0.373700  -0.009907   0.101235  -0.054236
     44       0.071139  -0.005904   0.262251   0.051779   0.086633  -0.057044
     45      -0.030067  -0.043562   0.091916  -0.158651   0.021736  -0.110622
     46       0.087849   0.048940  -0.121885   0.330989  -0.011079   0.102564
     47       0.053739   0.010021  -0.058911   0.147418   0.006342   0.034678
     48       0.021278   0.083263   0.149797   0.295026  -0.026565  -0.124096
     49       0.178284  -0.177880  -0.026150  -0.121346   0.087838   0.092927
     50       0.075613  -0.055539  -0.024560  -0.041368   0.026804   0.022012
     51      -0.023352  -0.050523   0.084602  -0.242960   0.036653  -0.121591
     52       0.142725   0.162574  -0.031860   0.156198  -0.049058   0.177454
     53      -0.510883  -0.685902  -0.200147   0.356733   0.099006  -0.007590
     54      -0.016774  -0.070848   0.081297   0.009650   0.174001   0.559823
     55       0.048555   0.069582  -0.045758  -0.009061  -0.112876  -0.335705
     56       0.036800  -0.070017  -0.049881  -0.151948  -0.152494  -0.594269
                 48         49         50         51         52         53    
      0      -0.000710   0.006080  -0.035997  -0.021669   0.005149  -0.039974
      1      -0.001665  -0.054082   0.092254  -0.019630  -0.006983   0.109494
      2      -0.002319  -0.024081   0.085580   0.053918  -0.004309   0.039213
      3       0.002034   0.010246  -0.020569   0.018045  -0.005805  -0.021806
      4       0.002132   0.006063  -0.021798   0.005012  -0.005789  -0.001971
      5      -0.003453  -0.004779   0.023287  -0.055180   0.010563   0.028936
      6      -0.000431   0.016362  -0.003736  -0.012831   0.001026  -0.063020
      7      -0.001016  -0.001380   0.003510   0.014726  -0.000137  -0.049433
      8      -0.005689  -0.017543   0.001547  -0.012123  -0.000166   0.096703
      9      -0.000611   0.003423  -0.002640   0.002085   0.001339  -0.002607
     10      -0.003230   0.005405  -0.003278  -0.007457  -0.004885   0.021333
     11      -0.003450  -0.001402   0.006061  -0.036762   0.001861   0.031232
     12      -0.002212  -0.018756   0.027888  -0.018233   0.002129   0.005949
     13       0.002266   0.006767  -0.010284   0.035493   0.005291  -0.040740
     14       0.014898   0.032148  -0.037850  -0.023113  -0.004753  -0.000953
     15       0.010090   0.022123  -0.030093  -0.014782  -0.006203   0.052367
     16      -0.009922  -0.048519   0.055579   0.026264   0.011622  -0.029608
     17      -0.007784  -0.025340   0.021154   0.039808  -0.000425  -0.065366
     18      -0.008380   0.000352   0.089335  -0.053035   0.015218   0.004310
     19       0.012193   0.032668  -0.088096   0.026682  -0.015323   0.021967
     20       0.016117  -0.016271  -0.054034   0.045252   0.000341  -0.075249
     21       0.009525   0.033963   0.097676   0.058573  -0.218030  -0.008400
     22      -0.039387  -0.134432  -0.495195  -0.122207   0.660093  -0.062465
     23      -0.053582   0.001401  -0.144441   0.043943  -0.028700  -0.086827
     24      -0.014087  -0.054153  -0.114598  -0.044454  -0.032895  -0.035332
     25       0.039025   0.218128   0.317595   0.254074   0.082541  -0.013258
     26       0.094746   0.425158   0.230066   0.475568   0.091942   0.036125
     27       0.006986   0.022756   0.024535   0.061260   0.191479   0.051149
     28      -0.023793  -0.049287  -0.236181  -0.125541  -0.652157  -0.201760
     29      -0.064946  -0.028292  -0.309090  -0.045494  -0.124476  -0.157419
     30      -0.002888  -0.000227   0.006643  -0.023816   0.021469  -0.002643
     31      -0.004222  -0.014317   0.018741  -0.024691   0.029018   0.068978
     32       0.004134  -0.005487   0.012829   0.040291  -0.033004  -0.001113
     33      -0.000529  -0.007148  -0.002928   0.017722  -0.008866   0.012282
     34      -0.000485   0.008278  -0.027554  -0.003778   0.031507  -0.007767
     35      -0.001879   0.017166   0.015185  -0.015616   0.028927  -0.067694
     36       0.020506  -0.069072   0.130135   0.126318   0.016624  -0.235322
     37      -0.023710   0.073445  -0.108291  -0.114460  -0.063897   0.365800
     38      -0.045587   0.099438  -0.177935  -0.265243  -0.045559   0.539537
     39      -0.019962  -0.091208  -0.011430   0.079800  -0.001864   0.090393
     40       0.025056   0.089899  -0.001052  -0.086100   0.008396  -0.044794
     41       0.039794   0.044332   0.029323  -0.092079   0.005515  -0.188357
     42       0.024240  -0.129758   0.071384  -0.021032  -0.007408   0.195704
     43      -0.025314   0.156539  -0.099550   0.028958   0.014666  -0.184343
     44       0.027491   0.076390  -0.037887  -0.061941   0.005691  -0.113368
     45       0.528367   0.030022  -0.286824   0.204916  -0.040658   0.245027
     46      -0.512740  -0.035854   0.174308  -0.174527   0.035933  -0.075404
     47      -0.198314   0.016550   0.056874  -0.085396   0.006397  -0.087908
     48      -0.060478  -0.498649  -0.177295   0.362410  -0.038238   0.191174
     49       0.113572   0.497665   0.023029  -0.301275   0.031303  -0.013756
     50       0.052911   0.182385   0.009365  -0.114858   0.010166  -0.052114
     51      -0.439000   0.242755  -0.213355   0.291633  -0.036132   0.162884
     52       0.413530  -0.221005   0.264458  -0.254406   0.027999  -0.174514
     53       0.059353  -0.062150  -0.135340  -0.036135   0.013706  -0.083744
     54      -0.033444   0.045415   0.010937   0.188262  -0.028747   0.096444
     55       0.005295  -0.021277   0.011844  -0.095121   0.018039  -0.070118
     56      -0.045166  -0.052295   0.012965  -0.073243   0.031639  -0.237702
                  54         55         56    
      0      -0.025224  -0.007442  -0.011305
      1       0.015100  -0.002947  -0.010099
      2       0.037018   0.032652   0.017612
      3      -0.006826  -0.003625   0.000556
      4      -0.017936   0.031989  -0.014827
      5      -0.038478  -0.009687   0.036276
      6       0.008907  -0.013540  -0.006638
      7       0.089408  -0.095926  -0.017734
      8      -0.063233  -0.016805   0.006909
      9      -0.018253   0.004159   0.008744
     10       0.060280   0.032928  -0.002966
     11       0.049462  -0.034425  -0.034632
     12       0.135994   0.075770  -0.010516
     13      -0.178056  -0.081072   0.021986
     14      -0.095489  -0.062707   0.005738
     15       0.030296   0.007598  -0.011103
     16      -0.021472  -0.019154   0.025045
     17       0.102967   0.081603   0.012197
     18      -0.089156  -0.045783  -0.013632
     19       0.104600   0.044169   0.011241
     20       0.028833   0.033762   0.024516
     21      -0.035645   0.031641  -0.010431
     22       0.089066  -0.009555  -0.022210
     23      -0.135116  -0.011040   0.026279
     24       0.027744   0.021707  -0.019240
     25       0.033872  -0.004853  -0.027769
     26      -0.108126   0.010902   0.019130
     27       0.036223   0.015882  -0.002032
     28      -0.027021   0.040311  -0.020205
     29      -0.102422  -0.000823   0.023539
     30      -0.195503   0.221584   0.283341
     31      -0.310459   0.573155   0.152822
     32       0.360500  -0.436707  -0.473882
     33       0.109869  -0.153365   0.343870
     34      -0.441458   0.504555  -0.420466
     35      -0.239578   0.192519  -0.597715
     36       0.144737   0.039775  -0.013264
     37       0.117363   0.030129  -0.010289
     38      -0.106576  -0.072354   0.024302
     39      -0.113450  -0.053030  -0.006098
     40       0.039525  -0.018724   0.021958
     41      -0.018989  -0.004811   0.020752
     42       0.165434   0.036683   0.000326
     43      -0.340318  -0.148342   0.019818
     44       0.038132  -0.001272   0.005120
     45      -0.071627  -0.062626   0.002233
     46      -0.052177  -0.042642   0.040670
     47       0.034450   0.016186   0.013589
     48      -0.177235  -0.113571  -0.010640
     49       0.140743   0.030380   0.046819
     50       0.017224   0.001318   0.019355
     51       0.010810  -0.006590  -0.008407
     52      -0.106671  -0.029983   0.024134
     53       0.003317   0.003023   0.019101
     54      -0.150667  -0.091632  -0.009644
     55       0.031691   0.060676   0.021763
     56      -0.051094  -0.054453   0.034275


-----------
IR SPECTRUM
-----------

 Mode    freq (cm**-1)   T**2         TX         TY         TZ
-------------------------------------------------------------------
  48:     11793.09  887.033220  (  9.071664  -0.329291 -28.365996)
  49:     15800.78  13789.583382  (-31.953875 -18.697858 -111.440223)
  50:     22119.59  24981.750623  ( 48.481768 135.234747 -65.900167)
  51:     30436.11  218725.610404  ( 52.849378 -318.561781 -338.305994)
  52:     40184.01  116313.219455  (-47.468715 307.503078 -139.648838)
  53:     46585.65  25141.805218  (-27.204566  30.730436 -153.157948)
  54:     62830.88  371838.386793  ( 74.746917 -593.141255 -120.144650)
  55:     77169.29  205292.765474  (111.123368 412.694085 150.425911)
  56:    145943.19  111445.416749  (-143.034078  39.369696 -299.059687)

The first frequency considered to be a vibration is 48
The total number of vibrations considered is 9


--------------------------
THERMOCHEMISTRY AT 298.15K
--------------------------

Temperature         ... 298.15 K
Pressure            ... 1.00 atm
Total Mass          ... 98.17 AMU

Throughout the following assumptions are being made:
  (1) The electronic state is orbitally nondegenerate
  (2) There are no thermally accessible electronically excited states
  (3) Hindered rotations indicated by low frequency modes) are not
      treated as such but are treated as vibrations and this may
      case some error
  (4) All equations used are the standard statistical mechanics
      equations for an ideal gas
  (5) All vibrations are strinctly harmonic


------------
INNER ENERGY
------------

The inner energy is: U= E(el) + E(ZPE) + E(vib) + E(rot) + E(trans)
    E(el)   - is the total energy from the electronic structure calculation
              = E(kin-el) + E(nuc-el) + E(el-el) + E(nuc-nuc)
    E(ZPE)  - the the zero temperature vibrational energy from the frequency calculation
    E(vib)  - the the finite temperature correction to E(ZPE) due to population
              of excietd vibrational states
    E(rot)  - is the rotational thermal energy
    E(trans)- is the translational thermal energy

Summary of contributions to the inner energy U:
Electronic energy                ...   -290.08243467 Eh
Zero point energy                ...      1.03169692 Eh     647.40 kcal/mol
Thermal vibrational correction   ...      0.00000000 Eh       0.00 kcal/mol
Thermal rotational correction    ...      0.00141627 Eh       0.89 kcal/mol
Thermal translational correction ...      0.00141627 Eh       0.89 kcal/mol
-----------------------------------------------------------------------
Total thermal energy                   -289.04790521 Eh


Summary of corrections to the electronic energy:
(perhaps to be used in another calculation)
Total thermal correction                  0.00283254 Eh       1.78 kcal/mol
Non-thermal (ZPE) correction              1.03169692 Eh     647.40 kcal/mol
-----------------------------------------------------------------------
Total correction                          1.03452946 Eh     649.18 kcal/mol


--------
ENTHALPY
--------

The enthalpy is H = U + kB*T
                kB is Boltzmann's constant
Total free energy                 ...   -289.04790521 Eh 
Thermal Enthalpy correction       ...      0.00094421 Eh       0.59 kcal/mol
-----------------------------------------------------------------------
Total Enthalpy                    ...   -289.04696100 Eh


-------
ENTROPY
-------

The entropy contributions are T*S = T*(S(el)+S(vib)+S(rot)+S(trans)
     S(el)   - electronic entropy
     S(vib)  - vibrational entropy
     S(rot)  - rotational entropy
     S(trans)- translational entropy
The entropies will be listed as mutliplied by the temperature to get
units of energy

Electronic entropy                ...      0.00000000 Eh      0.00 kcal/mol
Vibrational entropy               ...      0.00000000 Eh      0.00 kcal/mol
Rotational entropy                ...      0.01201285 Eh      7.54 kcal/mol
Translational entropy             ...      0.01884507 Eh     11.83 kcal/mol
-----------------------------------------------------------------------
Final entropy term                ...      0.03085792 Eh     19.36 kcal/mol


CAUTION: The rotational entropy is not quite correctly treated here
         because it includes a symmetry number that is not yet correctly
         implemented in ORCA!
For a nonlinear molecule the correct rotational entropy is:
    S(rot) = R*(ln(qrot/sn)+1.5)
    R    = 8.31441 J/mol/K = 1.987191683e-3 kcal/mol/K
    qrot = 224503.7652239
    sn is the rotational symmetry number. We have assumed 3 here
       if it is different for your molecule then you should correct
       the printed rotational entropy by manually evaluating the equation
       as given above

For convenience we print out the resulting values for sn=1 - 12:
 sn= 1  qrot/sn=  224503.7652 T*S(rot)=     8.19 kcal/mol T*S(tot)=    20.01 kcal/mol
 sn= 2  qrot/sn=  112251.8826 T*S(rot)=     7.78 kcal/mol T*S(tot)=    19.60 kcal/mol
 sn= 3  qrot/sn=   74834.5884 T*S(rot)=     7.54 kcal/mol T*S(tot)=    19.36 kcal/mol
 sn= 4  qrot/sn=   56125.9413 T*S(rot)=     7.37 kcal/mol T*S(tot)=    19.19 kcal/mol
 sn= 5  qrot/sn=   44900.7530 T*S(rot)=     7.24 kcal/mol T*S(tot)=    19.06 kcal/mol
 sn= 6  qrot/sn=   37417.2942 T*S(rot)=     7.13 kcal/mol T*S(tot)=    18.95 kcal/mol
 sn= 7  qrot/sn=   32071.9665 T*S(rot)=     7.04 kcal/mol T*S(tot)=    18.86 kcal/mol
 sn= 8  qrot/sn=   28062.9707 T*S(rot)=     6.96 kcal/mol T*S(tot)=    18.78 kcal/mol
 sn= 9  qrot/sn=   24944.8628 T*S(rot)=     6.89 kcal/mol T*S(tot)=    18.71 kcal/mol
 sn=10  qrot/sn=   22450.3765 T*S(rot)=     6.82 kcal/mol T*S(tot)=    18.65 kcal/mol
 sn=11  qrot/sn=   20409.4332 T*S(rot)=     6.77 kcal/mol T*S(tot)=    18.59 kcal/mol
 sn=12  qrot/sn=   18708.6471 T*S(rot)=     6.72 kcal/mol T*S(tot)=    18.54 kcal/mol


-------------------
GIBBS FREE ENTHALPY
-------------------

The Gibbs free enthalpy is G = H - T*S

Total enthalpy                    ...   -289.04696100 Eh 
Total entropy correction          ...     -0.03085792 Eh    -19.36 kcal/mol
-----------------------------------------------------------------------
Final Gibbs free enthalpy         ...   -289.07781892 Eh

For completeness - the Gibbs free enthalpy minus the electronic energy
G-E(el)                           ...      1.00461575 Eh    630.40 kcal/mol


Timings for individual modules:

Sum of individual times         ...     6167.404 sec (= 102.790 min)
GTO integral calculation        ...       22.223 sec (=   0.370 min)   0.4 %
SCF iterations                  ...      917.298 sec (=  15.288 min)  14.9 %
SCF Gradient evaluation         ...      532.919 sec (=   8.882 min)   8.6 %
Geometry relaxation             ...        0.800 sec (=   0.013 min)   0.0 %
Analytical frequency calculation...     4694.163 sec (=  78.236 min)  76.1 %
                             ****ORCA TERMINATED NORMALLY****
TOTAL RUN TIME: 0 days 1 hours 42 minutes 49 seconds 548 msec
