
                                 *****************
                                 * O   R   C   A *
                                 *****************

           --- An Ab Initio, DFT and Semiempirical electronic structure package ---

                  #######################################################
                  #                        -***-                        #
                  #  Department of molecular theory and spectroscopy    #
                  #              Directorship: Frank Neese              #
                  # Max Planck Institute for Chemical Energy Conversion #
                  #                  D-45470 Muelheim/Ruhr              #
                  #                       Germany                       #
                  #                                                     #
                  #                  All rights reserved                #
                  #                        -***-                        #
                  #######################################################


                         Program Version 3.0.3 - RELEASE   -


 With contributions from (in alphabetic order):
   Ute Becker             : Parallelization
   Dmytro Bykov           : SCF Hessian
   Dmitry Ganyushin       : Spin-Orbit,Spin-Spin,Magnetic field MRCI
   Andreas Hansen         : Spin unrestricted coupled pair/coupled cluster methods
   Dimitrios Liakos       : Extrapolation schemes; parallel MDCI
   Robert Izsak           : Overlap fitted RIJCOSX, COSX-SCS-MP3
   Christian Kollmar      : KDIIS, OOCD, Brueckner-CCSD(T), CCSD density
   Simone Kossmann        : Meta GGA functionals, TD-DFT gradient, OOMP2, MP2 Hessian
   Taras Petrenko         : DFT Hessian,TD-DFT gradient, ASA and ECA modules, normal mode analysis, Resonance Raman, ABS, FL, XAS/XES, NRVS
   Christoph Reimann      : Effective Core Potentials
   Michael Roemelt        : Restricted open shell CIS
   Christoph Riplinger    : Improved optimizer, TS searches, QM/MM, DLPNO-CCSD
   Barbara Sandhoefer     : DKH picture change effects
   Igor Schapiro          : Molecular dynamics
   Kantharuban Sivalingam : CASSCF convergence, NEVPT2
   Boris Wezisla          : Elementary symmetry handling
   Frank Wennmohs         : Technical directorship


 We gratefully acknowledge several colleagues who have allowed us to
 interface, adapt or use parts of their codes:
   Stefan Grimme, W. Hujo, H. Kruse, T. Risthaus : VdW corrections, initial TS optimization,
                                                   DFT functionals, gCP
   Ed Valeev                                     : LibInt (2-el integral package), F12 methods
   Garnet Chan, S. Sharma, R. Olivares           : DMRG
   Ulf Ekstrom                                   : XCFun DFT Library
   Mihaly Kallay                                 : mrcc  (arbitrary order and MRCC methods)
   Andreas Klamt, Michael Diedenhofen            : otool_cosmo (COSMO solvation model)
   Frank Weinhold                                : gennbo (NPA and NBO analysis)
   Christopher J. Cramer and Donald G. Truhlar   : smd solvation model


 Your calculation uses the libint2 library for the computation of 2-el integrals
 For citations please refer to: http://libint.valeyev.net

 This ORCA versions uses:
   CBLAS   interface :  Fast vector & matrix operations
   LAPACKE interface :  Fast linear algebra routines
   SCALAPACK package :  Parallel linear algebra routines


Your calculation utilizes the basis: Ahlrichs-TZV
Cite in your paper:
H - Kr: A. Schaefer, H. Horn and R. Ahlrichs, J. Chem. Phys. 97, 2571 (1992).

The def2-TZV basis will be loaded
Cite in your paper:
 	F. Weigend, R. Ahlrichs, Phys. Chem. Chem. Phys. 2005, 7, 3297.

================================================================================
                                        WARNINGS
                       Please study these warnings very carefully!
================================================================================
Now building the actual basis set
WARNING: Geometry optimizations can change the point-group symmetry!

WARNING: Geometry Optimization
  ===> : Switching off AutoStart
         For restart on a previous wavefunction, please use MOREAD


INFO   : the flag for use of LIBINT has been found!

================================================================================
                                       INPUT FILE
================================================================================
NAME = 2096_+.inp
|  1> ! NORI PBE0 def2-TZVP UseSym TightOPT Freq TightSCF Grid3 FinalGrid5 XYZFile
|  2> % pal
|  3>     nprocs 8
|  4> end
|  5> %method
|  6>     SymThresh 5.0e-2
|  7> end
|  8> % geom 
|  9>     MaxIter 10
| 10> end 
| 11> % maxcore 2000
| 12> % output
| 13>     printlevel mini
| 14>     print[ P_Basis ] 0
| 15>     print[ P_SCFInfo ] 1
| 16>     print[ P_SCFIterInfo ] 1
| 17>     print[ P_OrbEn ] 0
| 18>     print[ P_Cartesian ] 0
| 19> end
| 20> % elprop
| 21>     Dipole false
| 22> end
| 23> *xyz 1 1
| 24>  C        0.7207911513    -0.3119093449    -0.1433485605 
| 25>  C        2.1880778104    -0.1841789264     0.1135476256 
| 26>  C        2.7605780193     0.5978671542     1.0297853533 
| 27>  C        2.0021208389     1.4986988724     1.9531561155 
| 28>  C        4.2627219133     0.6215738052     1.1537678055 
| 29>  C        4.7224296322    -0.0654063489     2.4252168545 
| 30>  N        6.2259271912     0.0062176324     2.5512047208 
| 31>  H        0.5254935255    -1.0225863818    -0.9455986638 
| 32>  H        0.2803364459     0.6445289706    -0.4393674994 
| 33>  H        0.1803034359    -0.6570953179     0.7421611112 
| 34>  H        2.8426632968    -0.7779347716    -0.5214644594 
| 35>  H        0.9361453587     1.4943887359     1.7314370708 
| 36>  H        2.3555481023     2.5320928141     1.8701898618 
| 37>  H        2.1104200279     1.2088234074     3.0047027102 
| 38>  H        4.6174939054     1.6613856284     1.1567230950 
| 39>  H        4.7083696609     0.1209125759     0.2879268731 
| 40>  H        4.4596050232    -1.1234758414     2.4300363942 
| 41>  H        4.3194137410     0.4025819077     3.3233479500 
| 42>  H        6.6771779342    -0.4404926777     1.7499406875 
| 43>  H        6.5633017217    -0.4541930168     3.3987460753 
| 44>  H        6.5414812639     0.9781411233     2.5741788787 
| 45> *
| 46> 
| 47>                          ****END OF INPUT****
================================================================================

The point group is C1 - hence turning off symmetry
If this is a round-off problem, please increase the symmetry
        detection tolerance (%method SymThresh)


                       *****************************
                       * Geometry Optimization Run *
                       *****************************

Geometry optimization settings:
Update method            Update   .... BFGS
Choice of coordinates    CoordSys .... Redundant Internals
Initial Hessian          InHess   .... Almoef's Model

Convergence Tolerances:
Energy Change            TolE     ....  1.0000e-06 Eh
Max. Gradient            TolMAXG  ....  1.0000e-04 Eh/bohr
RMS Gradient             TolRMSG  ....  3.0000e-05 Eh/bohr
Max. Displacement        TolMAXD  ....  1.0000e-03 bohr
RMS Displacement         TolRMSD  ....  6.0000e-04 bohr

------------------------------------------------------------------------------
                        ORCA OPTIMIZATION COORDINATE SETUP
------------------------------------------------------------------------------

The optimization will be done in new redundant internal coordinates
Making redundant internal coordinates   ...  (new redundants) done
Evaluating the initial hessian          ...  (Almloef) done
Evaluating the coordinates              ...  done
Calculating the B-matrix                .... done
Calculating the G-matrix                .... done
Diagonalizing the G-matrix              .... done
Small eigenvalue found = 1.923e-02
Small eigenvalue found = 2.381e-02
The first mode is                       ....   39
The number of degrees of freedom        ....   57

    -----------------------------------------------------------------
                    Redundant Internal Coordinates


    -----------------------------------------------------------------
         Definition                    Initial Value    Approx d2E/dq
    -----------------------------------------------------------------
      1. B(C   1,C   0)                  1.4951         0.424720   
      2. B(C   2,C   1)                  1.3337         0.768261   
      3. B(C   3,C   2)                  1.4965         0.422572   
      4. B(C   4,C   2)                  1.5074         0.405857   
      5. B(C   5,C   4)                  1.5165         0.392529   
      6. B(N   6,C   5)                  1.5105         0.359484   
      7. B(H   7,C   0)                  1.0894         0.360885   
      8. B(H   8,C   0)                  1.0938         0.355106   
      9. B(H   9,C   0)                  1.0933         0.355699   
     10. B(H  10,C   1)                  1.0882         0.362434   
     11. B(H  11,C   3)                  1.0888         0.361693   
     12. B(H  12,C   3)                  1.0953         0.353148   
     13. B(H  13,C   3)                  1.0961         0.352078   
     14. B(H  14,C   4)                  1.0987         0.348809   
     15. B(H  15,C   4)                  1.0950         0.353594   
     16. B(H  16,C   5)                  1.0902         0.359790   
     17. B(H  17,C   5)                  1.0900         0.360116   
     18. B(H  18,N   6)                  1.0224         0.413514   
     19. B(H  19,N   6)                  1.0218         0.414314   
     20. B(H  20,N   6)                  1.0221         0.413858   
     21. A(C   1,C   0,H   8)          111.5305         0.330489   
     22. A(C   1,C   0,H   9)          111.8985         0.330580   
     23. A(C   1,C   0,H   7)          110.9901         0.331373   
     24. A(H   7,C   0,H   9)          107.5685         0.290378   
     25. A(H   8,C   0,H   9)          107.2290         0.289643   
     26. A(H   7,C   0,H   8)          107.3941         0.290302   
     27. A(C   0,C   1,H  10)          116.3242         0.331608   
     28. A(C   2,C   1,H  10)          117.5545         0.366437   
     29. A(C   0,C   1,C   2)          126.1148         0.421501   
     30. A(C   1,C   2,C   4)          119.5684         0.418100   
     31. A(C   1,C   2,C   3)          124.0079         0.421120   
     32. A(C   3,C   2,C   4)          116.4131         0.376454   
     33. A(C   2,C   3,H  11)          111.6033         0.331217   
     34. A(H  12,C   3,H  13)          106.8753         0.288929   
     35. A(C   2,C   3,H  13)          112.4992         0.329745   
     36. A(H  11,C   3,H  12)          107.7113         0.290152   
     37. A(C   2,C   3,H  12)          110.9571         0.329910   
     38. A(H  11,C   3,H  13)          106.9200         0.290014   
     39. A(H  14,C   4,H  15)          107.6648         0.288564   
     40. A(C   5,C   4,H  15)          109.4180         0.325990   
     41. A(C   2,C   4,H  15)          109.4717         0.327788   
     42. A(C   5,C   4,H  14)          109.1831         0.325260   
     43. A(C   2,C   4,H  14)          109.6870         0.327052   
     44. A(C   2,C   4,C   5)          111.3398         0.371696   
     45. A(H  16,C   5,H  17)          108.8994         0.290802   
     46. A(N   6,C   5,H  17)          106.1975         0.320363   
     47. A(C   4,C   5,H  17)          112.5970         0.326972   
     48. A(N   6,C   5,H  16)          106.5953         0.320315   
     49. A(C   4,C   5,H  16)          111.7317         0.326923   
     50. A(C   4,C   5,N   6)          110.4985         0.361775   
     51. A(C   5,N   6,H  18)          110.6867         0.324936   
     52. A(H  19,N   6,H  20)          107.9311         0.299033   
     53. A(H  18,N   6,H  20)          107.2676         0.298941   
     54. A(C   5,N   6,H  20)          110.7483         0.324980   
     55. A(H  18,N   6,H  19)          107.9063         0.298993   
     56. A(C   5,N   6,H  19)          112.1148         0.325039   
     57. D(H  10,C   1,C   0,H   7)      1.1443         0.013330   
     58. D(H  10,C   1,C   0,H   8)   -118.5632         0.013330   
     59. D(C   2,C   1,C   0,H   7)   -179.8120         0.013330   
     60. D(C   2,C   1,C   0,H   8)     60.4804         0.013330   
     61. D(C   2,C   1,C   0,H   9)    -59.6358         0.013330   
     62. D(H  10,C   1,C   0,H   9)    121.3206         0.013330   
     63. D(C   3,C   2,C   1,C   0)     -0.6574         0.042293   
     64. D(C   4,C   2,C   1,H  10)     -0.3924         0.042293   
     65. D(C   4,C   2,C   1,C   0)   -179.4256         0.042293   
     66. D(C   3,C   2,C   1,H  10)    178.3757         0.042293   
     67. D(H  13,C   3,C   2,C   1)    115.7183         0.013199   
     68. D(H  12,C   3,C   2,C   1)   -124.6051         0.013199   
     69. D(H  11,C   3,C   2,C   4)    174.3344         0.013199   
     70. D(H  12,C   3,C   2,C   4)     54.1986         0.013199   
     71. D(H  11,C   3,C   2,C   1)     -4.4693         0.013199   
     72. D(H  13,C   3,C   2,C   4)    -65.4779         0.013199   
     73. D(H  15,C   4,C   2,C   3)   -166.5333         0.012209   
     74. D(H  15,C   4,C   2,C   1)     12.3266         0.012209   
     75. D(H  14,C   4,C   2,C   3)    -48.6067         0.012209   
     76. D(H  14,C   4,C   2,C   1)    130.2532         0.012209   
     77. D(C   5,C   4,C   2,C   3)     72.3546         0.012209   
     78. D(C   5,C   4,C   2,C   1)   -108.7855         0.012209   
     79. D(H  17,C   5,C   4,H  14)     61.5475         0.012243   
     80. D(H  17,C   5,C   4,C   2)    -59.7085         0.012243   
     81. D(H  16,C   5,C   4,H  15)    -57.9245         0.012243   
     82. D(H  16,C   5,C   4,H  14)   -175.5250         0.012243   
     83. D(H  16,C   5,C   4,C   2)     63.2190         0.012243   
     84. D(N   6,C   5,C   4,H  15)     60.5822         0.012243   
     85. D(N   6,C   5,C   4,H  14)    -57.0184         0.012243   
     86. D(H  17,C   5,C   4,H  15)    179.1481         0.012243   
     87. D(N   6,C   5,C   4,C   2)   -178.2744         0.012243   
     88. D(H  20,N   6,C   5,H  17)    -62.7302         0.011881   
     89. D(H  20,N   6,C   5,C   4)     59.6664         0.011881   
     90. D(H  19,N   6,C   5,H  17)     57.8877         0.011881   
     91. D(H  19,N   6,C   5,H  16)    -58.1222         0.011881   
     92. D(H  19,N   6,C   5,C   4)   -179.7157         0.011881   
     93. D(H  18,N   6,C   5,H  17)    178.4312         0.011881   
     94. D(H  20,N   6,C   5,H  16)   -178.7401         0.011881   
     95. D(H  18,N   6,C   5,H  16)     62.4212         0.011881   
     96. D(H  18,N   6,C   5,C   4)    -59.1722         0.011881   
    -----------------------------------------------------------------

Number of atoms                         .... 21
Number of degrees of freedom            .... 96

         *************************************************************
         *                GEOMETRY OPTIMIZATION CYCLE   1            *
         *************************************************************


           ************************************************************
           *        Program running with 8 parallel MPI-processes     *
           *              working on a common directory               *
           ************************************************************
           ************************************************************
           *              Shut down parallel processing               *
           ************************************************************


           ************************************************************
           *        Program running with 8 parallel MPI-processes     *
           *              working on a common directory               *
           ************************************************************
------------
SCF SETTINGS
------------
Hamiltonian:
 Density Functional     Method          .... DFT(GTOs)
 Exchange Functional    Exchange        .... PBE
   PBE kappa parameter  XKappa          ....  0.804000
 Correlation Functional Correlation     .... PBE
 LDA part of GGA corr.  LDAOpt          .... PW91-LDA
 Gradients option       PostSCFGGA      .... off
 Hybrid DFT is turned on
   Fraction HF Exchange ScalHFX         ....  0.250000
   Scaling of DF-GGA-X  ScalDFX         ....  0.750000
   Scaling of DF-GGA-C  ScalDFC         ....  1.000000
   Scaling of DF-LDA-C  ScalLDAC        ....  1.000000
   Perturbative correction              ....  0.000000
   NL short-range parameter             ....  6.900000


General Settings:
 Integral files         IntName         .... 2096_+
 Hartree-Fock type      HFTyp           .... RHF
 Total Charge           Charge          ....    1
 Multiplicity           Mult            ....    1
 Number of Electrons    NEL             ....   56
 Basis Dimension        Dim             ....  301
 Nuclear Repulsion      ENuc            ....    314.7310200376 Eh

Convergence Acceleration:
 DIIS                   CNVDIIS         .... on
   Start iteration      DIISMaxIt       ....    12
   Startup error        DIISStart       ....  0.200000
   # of expansion vecs  DIISMaxEq       ....     5
   Bias factor          DIISBfac        ....   1.050
   Max. coefficient     DIISMaxC        ....  10.000
 Newton-Raphson         CNVNR           .... off
 SOSCF                  CNVSOSCF        .... on
   Start iteration      SOSCFMaxIt      ....   150
   Startup grad/error   SOSCFStart      ....  0.003300
 Level Shifting         CNVShift        .... on
   Level shift para.    LevelShift      ....    0.2500
   Turn off err/grad.   ShiftErr        ....    0.0010
 Zerner damping         CNVZerner       .... off
 Static damping         CNVDamp         .... on
   Fraction old density DampFac         ....    0.7000
   Max. Damping (<1)    DampMax         ....    0.9800
   Min. Damping (>=0)   DampMin         ....    0.0000
   Turn off err/grad.   DampErr         ....    0.1000
 Fernandez-Rico         CNVRico         .... off

SCF Procedure:
 Maximum # iterations   MaxIter         ....   125
 SCF integral mode      SCFMode         .... Direct
   Integral package                     .... LIBINT
 Reset frequeny         DirectResetFreq ....    20
 Integral Threshold     Thresh          ....  2.500e-11 Eh
 Primitive CutOff       TCut            ....  2.500e-12 Eh

Convergence Tolerance:
 Convergence Check Mode ConvCheckMode   .... Total+1el-Energy
 Energy Change          TolE            ....  1.000e-08 Eh
 1-El. energy change                    ....  1.000e-05 Eh
 Orbital Gradient       TolG            ....  1.000e-05
 Orbital Rotation angle TolX            ....  1.000e-05
 DIIS Error             TolErr          ....  5.000e-07


Diagonalization of the overlap matrix:
Smallest eigenvalue                        ... 9.262e-05
Time for diagonalization                   ...    0.496 sec
Threshold for overlap eigenvalues          ... 1.000e-08
Number of eigenvalues below threshold      ... 0
Time for construction of square roots      ...    0.025 sec
Total time needed                          ...    0.521 sec

-------------------
DFT GRID GENERATION
-------------------

General Integration Accuracy     IntAcc      ...  4.340
Radial Grid Type                 RadialGrid  ... Gauss-Chebyshev
Angular Grid (max. acc.)         AngularGrid ... Lebedev-194
Angular grid pruning method      GridPruning ... 3 (G Style)
Weight generation scheme         WeightScheme... Becke
Basis function cutoff            BFCut       ...    1.0000e-11
Integration weight cutoff        WCut        ...    1.0000e-14
Grids for H and He will be reduced by one unit

# of grid points (after initial pruning)     ...  44398 (   0.0 sec)
# of grid points (after weights+screening)   ...  40460 (   0.2 sec)
nearest neighbour list constructed           ...    0.0 sec
Grid point re-assignment to atoms done       ...    0.0 sec
Grid point division into batches done        ...    0.1 sec
Reduced shell lists constructed in    0.3 sec

Total number of grid points                  ...    40460
Total number of batches                      ...      644
Average number of points per batch           ...       62
Average number of grid points per atom       ...     1927
Average number of shells per batch           ...    99.28 (74.65%)
Average number of basis functions per batch  ...   231.38 (76.87%)
Average number of large shells per batch     ...    79.96 (80.54%)
Average number of large basis fcns per batch ...   188.33 (81.39%)
Maximum spatial batch extension              ...   3.06,  4.01,  2.90 au
Average spatial batch extension              ...   0.17,  0.18,  0.17 au

Time for grid setup =    0.664 sec

Loading Hartree-Fock densities                     ... done
Calculating cut-offs                               ... done
Setting up the integral package                    ... done
Initializing the effective Hamiltonian             ... done
Starting the Coulomb interaction                   ... done (   0.1 sec)
Reading the grid                                   ... done
Mapping shells                                     ... done
Starting the XC term evaluation                    ... done (   0.5 sec)
  promolecular density results
     # of electrons  =     56.990641316
     EX              =    -41.394567057
     EC              =     -1.851489671
     EX+EC           =    -43.246056728
Transforming the Hamiltonian                       ... done (   0.0 sec)
Diagonalizing the Hamiltonian                      ... done (   0.3 sec)
Back transforming the eigenvectors                 ... done (   0.0 sec)
Now organizing SCF variables                       ... done
--------------
SCF ITERATIONS
--------------
ITER       Energy         Delta-E        Max-DP      RMS-DP      [F,P]     Damp
               ***  Starting incremental Fock matrix formation  ***
  0   -291.0977001667   0.000000000000 0.03270600  0.00086443  0.1789690 0.7000
  1   -291.1927775566  -0.095077389901 0.03330891  0.00070420  0.0952119 0.7000
                               ***Turning on DIIS***
  2   -291.2351791282  -0.042401571633 0.06821523  0.00138240  0.0377215 0.0000
  3   -291.2950306149  -0.059851486678 0.02392823  0.00046146  0.0526647 0.0000
  4   -291.3110681393  -0.016037524355 0.00967542  0.00017432  0.0084324 0.0000
                      *** Initiating the SOSCF procedure ***
                           *** Shutting down DIIS ***
                      *** Re-Reading the Fockian *** 
                      *** Removing any level shift *** 
ITER      Energy       Delta-E        Grad      Rot      Max-DP    RMS-DP
  5   -291.31164834  -0.0005801965  0.000414  0.000414  0.003690  0.000079
               *** Restarting incremental Fock matrix formation ***
  6   -291.31168406  -0.0000357284  0.000267  0.001039  0.002108  0.000053
  7   -291.31168544  -0.0000013748  0.000335  0.000562  0.000424  0.000011
  8   -291.31168826  -0.0000028174  0.000085  0.000191  0.000315  0.000008
  9   -291.31168821   0.0000000467  0.000070  0.000090  0.000087  0.000002
 10   -291.31168846  -0.0000002484  0.000010  0.000011  0.000046  0.000001
 11   -291.31168846  -0.0000000015  0.000009  0.000006  0.000012  0.000000
                  ***Gradient check signals convergence***
              ***Rediagonalizing the Fockian in SOSCF/NRSCF***

               *****************************************************
               *                     SUCCESS                       *
               *           SCF CONVERGED AFTER  12 CYCLES          *
               *****************************************************

Setting up the final grid:

General Integration Accuracy     IntAcc      ...  5.010
Radial Grid Type                 RadialGrid  ... Gauss-Chebyshev
Angular Grid (max. acc.)         AngularGrid ... Lebedev-434
Angular grid pruning method      GridPruning ... 3 (G Style)
Weight generation scheme         WeightScheme... Becke
Basis function cutoff            BFCut       ...    1.0000e-11
Integration weight cutoff        WCut        ...    1.0000e-14
Grids for H and He will be reduced by one unit

# of grid points (after initial pruning)     ... 168466 (   0.0 sec)
# of grid points (after weights+screening)   ... 151545 (   0.3 sec)
nearest neighbour list constructed           ...    0.0 sec
Grid point re-assignment to atoms done       ...    0.0 sec
Grid point division into batches done        ...    1.0 sec
Reduced shell lists constructed in    1.3 sec

Total number of grid points                  ...   151545
Total number of batches                      ...     2380
Average number of points per batch           ...       63
Average number of grid points per atom       ...     7216
Average number of shells per batch           ...    98.37 (73.96%)
Average number of basis functions per batch  ...   229.89 (76.38%)
Average number of large shells per batch     ...    78.50 (79.80%)
Average number of large basis fcns per batch ...   185.13 (80.53%)
Maximum spatial batch extension              ...   3.76,  4.29,  2.84 au
Average spatial batch extension              ...   0.11,  0.12,  0.11 au

Final grid set up in    2.8 sec
Final integration                            ... done (   1.1 sec)
Change in XC energy                          ...     0.000303098
Integrated number of electrons               ...    55.999998266
Previous integrated no of electrons          ...    55.998745471
Total Energy       :         -291.31138536 Eh           -7926.98580 eV
  Last Energy change         ...   -2.0629e-09  Tolerance :   1.0000e-08
  Last MAX-Density change    ...    6.6749e-06  Tolerance :   1.0000e-07
             **** THE GBW FILE WAS UPDATED (2096_+.gbw) ****
             **** DENSITY FILE WAS UPDATED (2096_+.scfp.tmp) ****
             **** ENERGY FILE WAS UPDATED (2096_+.en.tmp) ****
Total SCF time: 0 days 0 hours 1 min 38 sec 
           ************************************************************
           *              Shut down parallel processing               *
           ************************************************************

-------------------------   --------------------
FINAL SINGLE POINT ENERGY      -291.311385363568
-------------------------   --------------------



           ************************************************************
           *        Program running with 8 parallel MPI-processes     *
           *              working on a common directory               *
           ************************************************************
------------------------------------------------------------------------------
                         ORCA SCF GRADIENT CALCULATION
------------------------------------------------------------------------------

Gradient of the Kohn-Sham DFT energy:
Kohn-Sham wavefunction type      ... RKS
Hartree-Fock exchange scaling    ...    0.250
Number of operators              ...    1
Number of atoms                  ...   21
Basis set dimensions             ...  301
Integral neglect threshold       ... 2.5e-11
Integral primitive cutoff        ... 2.5e-12

Nuclear repulsion gradient       ... done
One Electron Gradient            ... done
Pre-screening matrix             ... done
Starting the two electron gradient:
Two electron gradient done
Exchange-correlation gradient    ... done

------------------
CARTESIAN GRADIENT
------------------

   1   C   :   -0.000108518    0.000079787    0.000140479
   2   C   :    0.000017092   -0.000065410    0.000102121
   3   C   :   -0.000078703   -0.000052869   -0.000053900
   4   C   :    0.000158858    0.000200197    0.000003524
   5   C   :   -0.000185678    0.000126201    0.000049324
   6   C   :    0.000004470    0.000061308    0.000203098
   7   N   :   -0.000057401    0.000028719   -0.000126928
   8   H   :    0.000104812    0.000053717   -0.000107937
   9   H   :   -0.000082288    0.000036424   -0.000114489
  10   H   :    0.000052479   -0.000161975   -0.000028009
  11   H   :   -0.000014898   -0.000010727    0.000087334
  12   H   :    0.000043362    0.000016756   -0.000158151
  13   H   :   -0.000071868    0.000036146    0.000039719
  14   H   :   -0.000022490   -0.000126138    0.000125203
  15   H   :    0.000121957   -0.000172150   -0.000111324
  16   H   :    0.000039306   -0.000003976   -0.000038480
  17   H   :   -0.000062318   -0.000004184   -0.000032487
  18   H   :    0.000040314    0.000034615    0.000006044
  19   H   :    0.000010132   -0.000008775    0.000008380
  20   H   :   -0.000036641    0.000030284    0.000000994
  21   H   :    0.000128022   -0.000097951    0.000005483

Norm of the cartesian gradient     ...    0.000704455
RMS gradient                       ...    0.000088753
MAX gradient                       ...    0.000203098

-------
TIMINGS
-------

Total SCF gradient time            ...       37.384 sec

One electron gradient       ....       0.169 sec  (  0.5%)
Prescreening matrices       ....       0.304 sec  (  0.8%)
Two electron gradient       ....      31.264 sec  ( 83.6%)
XC gradient                 ....       4.556 sec  ( 12.2%)
           ************************************************************
           *              Shut down parallel processing               *
           ************************************************************
------------------------------------------------------------------------------
                         ORCA GEOMETRY RELAXATION STEP
------------------------------------------------------------------------------

Reading the OPT-File                    .... done
Getting information on internals        .... done
Copying old internal coords+grads       .... done
Making the new internal coordinates     .... (new redundants).... done
Validating the new internal coordinates .... (new redundants).... done
Calculating the B-matrix                .... done
Calculating the G,G- and P matrices     .... done
Transforming gradient to internals      .... done
Projecting the internal gradient        .... done
Number of atoms                         ....  21
Number of internal coordinates          ....  96
Current Energy                          ....  -291.311385364 Eh
Current gradient norm                   ....     0.000704455 Eh/bohr
Maximum allowed component of the step   ....  0.300
Current trust radius                    ....  0.300
Evaluating the initial hessian          ....  (Almloef) done
Projecting the Hessian                  .... done
Forming the augmented Hessian           .... done
Diagonalizing the augmented Hessian     .... done
Last element of RFO vector              ....  0.999950971
Lowest eigenvalues of augmented Hessian:
 -0.000002363  0.011881415  0.012209608  0.012243243  0.013199502
Length of the computed step             ....  0.009902749
The final length of the internal step   ....  0.009902749
Converting the step to cartesian space:
 Initial RMS(Int)=    0.0010106951
Transforming coordinates:
 Iter   0:  RMS(Cart)=    0.0023192694 RMS(Int)=    0.0010106102
 Iter   1:  RMS(Cart)=    0.0000023133 RMS(Int)=    0.0000010205
 Iter   2:  RMS(Cart)=    0.0000000040 RMS(Int)=    0.0000000016
done
Storing new coordinates                 .... done

                                .--------------------.
          ----------------------|Geometry convergence|---------------------
          Item                value                 Tolerance   Converged
          -----------------------------------------------------------------
          RMS gradient        0.00006368            0.00003000      NO
          MAX gradient        0.00020928            0.00010000      NO
          RMS step            0.00101070            0.00060000      NO
          MAX step            0.00267734            0.00100000      NO
          ....................................................
          Max(Bonds)      0.0003      Max(Angles)    0.02
          Max(Dihed)        0.15      Max(Improp)    0.00
          -----------------------------------------------------------------

The optimization has not yet converged - more geometry cycles are needed


    ---------------------------------------------------------------------------
                         Redundant Internal Coordinates
                            (Angstroem and degrees)

        Definition                    Value    dE/dq     Step     New-Value
    ----------------------------------------------------------------------------
     1. B(C   1,C   0)                1.4951  0.000100 -0.0001    1.4949   
     2. B(C   2,C   1)                1.3337 -0.000087  0.0001    1.3338   
     3. B(C   3,C   2)                1.4965 -0.000154  0.0002    1.4966   
     4. B(C   4,C   2)                1.5074 -0.000037  0.0000    1.5075   
     5. B(C   5,C   4)                1.5165  0.000015 -0.0000    1.5165   
     6. B(N   6,C   5)                1.5105 -0.000123  0.0002    1.5106   
     7. B(H   7,C   0)                1.0894  0.000149 -0.0002    1.0892   
     8. B(H   8,C   0)                1.0938  0.000139 -0.0002    1.0936   
     9. B(H   9,C   0)                1.0933  0.000161 -0.0002    1.0931   
    10. B(H  10,C   1)                1.0882  0.000016 -0.0000    1.0882   
    11. B(H  11,C   3)                1.0888  0.000152 -0.0002    1.0886   
    12. B(H  12,C   3)                1.0953  0.000086 -0.0001    1.0952   
    13. B(H  13,C   3)                1.0961  0.000173 -0.0003    1.0959   
    14. B(H  14,C   4)                1.0987 -0.000209  0.0003    1.0990   
    15. B(H  15,C   4)                1.0950  0.000022 -0.0000    1.0949   
    16. B(H  16,C   5)                1.0902 -0.000048  0.0001    1.0903   
    17. B(H  17,C   5)                1.0900 -0.000054  0.0001    1.0901   
    18. B(H  18,N   6)                1.0224  0.000003 -0.0000    1.0223   
    19. B(H  19,N   6)                1.0218 -0.000026  0.0000    1.0219   
    20. B(H  20,N   6)                1.0221 -0.000156  0.0002    1.0223   
    21. A(C   1,C   0,H   8)          111.53  0.000055   -0.01    111.52   
    22. A(C   1,C   0,H   9)          111.90  0.000006   -0.00    111.90   
    23. A(C   1,C   0,H   7)          110.99  0.000044   -0.01    110.98   
    24. A(H   7,C   0,H   9)          107.57 -0.000042    0.01    107.58   
    25. A(H   8,C   0,H   9)          107.23 -0.000012   -0.00    107.23   
    26. A(H   7,C   0,H   8)          107.39 -0.000059    0.01    107.41   
    27. A(C   0,C   1,H  10)          116.32  0.000077   -0.01    116.31   
    28. A(C   2,C   1,H  10)          117.55 -0.000095    0.02    117.57   
    29. A(C   0,C   1,C   2)          126.11  0.000017   -0.00    126.11   
    30. A(C   1,C   2,C   4)          119.57 -0.000127    0.02    119.59   
    31. A(C   1,C   2,C   3)          124.01  0.000015   -0.00    124.01   
    32. A(C   3,C   2,C   4)          116.41  0.000112   -0.02    116.40   
    33. A(C   2,C   3,H  11)          111.60 -0.000068    0.01    111.61   
    34. A(H  12,C   3,H  13)          106.88 -0.000011    0.01    106.88   
    35. A(C   2,C   3,H  13)          112.50 -0.000018    0.00    112.50   
    36. A(H  11,C   3,H  12)          107.71  0.000030   -0.01    107.71   
    37. A(C   2,C   3,H  12)          110.96  0.000008    0.00    110.96   
    38. A(H  11,C   3,H  13)          106.92  0.000065   -0.02    106.90   
    39. A(H  14,C   4,H  15)          107.66  0.000056   -0.02    107.65   
    40. A(C   5,C   4,H  15)          109.42 -0.000035    0.01    109.43   
    41. A(C   2,C   4,H  15)          109.47 -0.000080    0.02    109.50   
    42. A(C   5,C   4,H  14)          109.18 -0.000006   -0.01    109.18   
    43. A(C   2,C   4,H  14)          109.69 -0.000063    0.01    109.70   
    44. A(C   2,C   4,C   5)          111.34  0.000126   -0.02    111.32   
    45. A(H  16,C   5,H  17)          108.90 -0.000002    0.01    108.91   
    46. A(N   6,C   5,H  17)          106.20  0.000002   -0.01    106.19   
    47. A(C   4,C   5,H  17)          112.60 -0.000015    0.00    112.60   
    48. A(N   6,C   5,H  16)          106.60 -0.000015    0.00    106.60   
    49. A(C   4,C   5,H  16)          111.73 -0.000023    0.01    111.74   
    50. A(C   4,C   5,N   6)          110.50  0.000053   -0.01    110.49   
    51. A(C   5,N   6,H  18)          110.69  0.000003   -0.00    110.68   
    52. A(H  19,N   6,H  20)          107.93 -0.000042    0.01    107.94   
    53. A(H  18,N   6,H  20)          107.27 -0.000001   -0.00    107.26   
    54. A(C   5,N   6,H  20)          110.75  0.000030   -0.01    110.74   
    55. A(H  18,N   6,H  19)          107.91 -0.000008    0.00    107.91   
    56. A(C   5,N   6,H  19)          112.11  0.000016   -0.00    112.11   
    57. D(H  10,C   1,C   0,H   7)      1.14 -0.000013    0.09      1.24   
    58. D(H  10,C   1,C   0,H   8)   -118.56 -0.000005    0.09   -118.47   
    59. D(C   2,C   1,C   0,H   7)   -179.81 -0.000036    0.15   -179.67   
    60. D(C   2,C   1,C   0,H   8)     60.48 -0.000028    0.14     60.62   
    61. D(C   2,C   1,C   0,H   9)    -59.64 -0.000055    0.15    -59.48   
    62. D(H  10,C   1,C   0,H   9)    121.32 -0.000032    0.10    121.42   
    63. D(C   3,C   2,C   1,C   0)     -0.66  0.000009   -0.00     -0.66   
    64. D(C   4,C   2,C   1,H  10)     -0.39  0.000012   -0.02     -0.42   
    65. D(C   4,C   2,C   1,C   0)   -179.43  0.000034   -0.08   -179.50   
    66. D(C   3,C   2,C   1,H  10)    178.38 -0.000013    0.05    178.42   
    67. D(H  13,C   3,C   2,C   1)    115.72  0.000024   -0.03    115.69   
    68. D(H  12,C   3,C   2,C   1)   -124.61  0.000003   -0.02   -124.62   
    69. D(H  11,C   3,C   2,C   4)    174.33 -0.000025    0.06    174.39   
    70. D(H  12,C   3,C   2,C   4)     54.20 -0.000023    0.05     54.25   
    71. D(H  11,C   3,C   2,C   1)     -4.47  0.000001   -0.01     -4.48   
    72. D(H  13,C   3,C   2,C   4)    -65.48 -0.000003    0.04    -65.43   
    73. D(H  15,C   4,C   2,C   3)   -166.53  0.000034   -0.13   -166.67   
    74. D(H  15,C   4,C   2,C   1)     12.33  0.000011   -0.07     12.26   
    75. D(H  14,C   4,C   2,C   3)    -48.61  0.000018   -0.13    -48.74   
    76. D(H  14,C   4,C   2,C   1)    130.25 -0.000006   -0.07    130.19   
    77. D(C   5,C   4,C   2,C   3)     72.35  0.000050   -0.15     72.21   
    78. D(C   5,C   4,C   2,C   1)   -108.79  0.000027   -0.08   -108.87   
    79. D(H  17,C   5,C   4,H  14)     61.55 -0.000020    0.11     61.66   
    80. D(H  17,C   5,C   4,C   2)    -59.71 -0.000019    0.12    -59.59   
    81. D(H  16,C   5,C   4,H  15)    -57.92 -0.000008    0.11    -57.82   
    82. D(H  16,C   5,C   4,H  14)   -175.53 -0.000051    0.13   -175.40   
    83. D(H  16,C   5,C   4,C   2)     63.22 -0.000050    0.13     63.35   
    84. D(N   6,C   5,C   4,H  15)     60.58 -0.000006    0.11     60.69   
    85. D(N   6,C   5,C   4,H  14)    -57.02 -0.000049    0.13    -56.89   
    86. D(H  17,C   5,C   4,H  15)    179.15  0.000023    0.09    179.24   
    87. D(N   6,C   5,C   4,C   2)   -178.27 -0.000048    0.13   -178.14   
    88. D(H  20,N   6,C   5,H  17)    -62.73  0.000005    0.01    -62.72   
    89. D(H  20,N   6,C   5,C   4)     59.67  0.000019   -0.00     59.66   
    90. D(H  19,N   6,C   5,H  17)     57.89 -0.000017    0.02     57.91   
    91. D(H  19,N   6,C   5,H  16)    -58.12 -0.000009    0.01    -58.11   
    92. D(H  19,N   6,C   5,C   4)   -179.72 -0.000003    0.01   -179.71   
    93. D(H  18,N   6,C   5,H  17)    178.43 -0.000015    0.02    178.45   
    94. D(H  20,N   6,C   5,H  16)   -178.74  0.000013   -0.00   -178.74   
    95. D(H  18,N   6,C   5,H  16)     62.42 -0.000007    0.01     62.43   
    96. D(H  18,N   6,C   5,C   4)    -59.17 -0.000001    0.01    -59.17   
    ----------------------------------------------------------------------------

         *************************************************************
         *                GEOMETRY OPTIMIZATION CYCLE   2            *
         *************************************************************
---------------------------------
CARTESIAN COORDINATES (ANGSTROEM)
---------------------------------
  C      0.968641   -0.000053   -2.920187
  C      0.845784    0.405656   -1.486599
  C     -0.186567    0.147868   -0.682361
  C     -1.414964   -0.593324   -1.108530
  C     -0.160718    0.639002    0.742643
  C      0.020525   -0.507983    1.718026
  N     -0.001795   -0.000658    3.140762
  H      1.916593    0.333660   -3.340133
  H      0.170392    0.432993   -3.529462
  H      0.917013   -1.085051   -3.042655
  H      1.675482    0.976232   -1.073972
  H     -1.394505   -0.825510   -2.171860
  H     -2.316283   -0.002424   -0.913912
  H     -1.536760   -1.543940   -0.577085
  H     -1.099736    1.162252    0.971187
  H      0.657522    1.355807    0.867317
  H      0.979949   -1.007323    1.580435
  H     -0.776409   -1.248299    1.646789
  H      0.741484    0.684942    3.291366
  H      0.123305   -0.753964    3.819786
  H     -0.889120    0.463908    3.345646

----------------------------
CARTESIAN COORDINATES (A.U.)
----------------------------
  NO LB      ZA    FRAG    MASS        X           Y           Z
   0 C     6.0000    0    12.011          1.830466584834861         -0.000100486674048         -5.518353299214127
   1 C     6.0000    0    12.011          1.598300389958525          0.766577890818567         -2.809265103586222
   2 C     6.0000    0    12.011         -0.352561408299465          0.279430578208075         -1.289474494907800
   3 C     6.0000    0    12.011         -2.673894746300841         -1.121220192696242         -2.094818422528367
   4 C     6.0000    0    12.011         -0.303713391576659          1.207537973702125          1.403392116294312
   5 C     6.0000    0    12.011          0.038787274953039         -0.959949251481544          3.246598257968574
   6 N     7.0000    0    14.007         -0.003392691275857         -0.001244258822171          5.935180387292062
   7 H     1.0000    0     1.008          3.621836543681679          0.630525529798918         -6.311936284986795
   8 H     1.0000    0     1.008          0.321993663156263          0.818238942536699         -6.669716145974292
   9 H     1.0000    0     1.008          1.732904253393933         -2.050449807914783         -5.749785315671882
  10 H     1.0000    0     1.008          3.166203026807227          1.844810244901034         -2.029512914725542
  11 H     1.0000    0     1.008         -2.635233180250094         -1.559988628624778         -4.104220116489921
  12 H     1.0000    0     1.008         -4.377140767989940         -0.004580146821113         -1.727043436115140
  13 H     1.0000    0     1.008         -2.904056053032537         -2.917622895547817         -1.090533296327673
  14 H     1.0000    0     1.008         -2.078200401289862          2.196338159285488          1.835277033079756
  15 H     1.0000    0     1.008          1.242536461196544          2.562104493990695          1.638991556519753
  16 H     1.0000    0     1.008          1.851835868711476         -1.903563792996965          2.986589931872335
  17 H     1.0000    0     1.008         -1.467199962435121         -2.358942743504973          3.111979541542965
  18 H     1.0000    0     1.008          1.401202399867058          1.294352617928952          6.219779767092304
  19 H     1.0000    0     1.008          0.233012786787754         -1.424785302866881          7.218349399475978
  20 H     1.0000    0     1.008         -1.680192681077619          0.876659374558134          6.322354941286541

--------------------------------
INTERNAL COORDINATES (ANGSTROEM)
--------------------------------
 C      0   0   0   0.000000     0.000     0.000
 C      1   0   0   1.494947     0.000     0.000
 C      2   1   0   1.333793   126.113     0.000
 C      3   2   1   1.496645   124.007   359.339
 C      3   2   1   1.507486   119.587   180.499
 C      5   3   2   1.516507   111.323   251.133
 N      6   5   3   1.510647   110.486   181.859
 H      1   2   3   1.089189   110.984   180.333
 H      1   2   3   1.093594   111.519    60.622
 H      1   2   3   1.093108   111.896   300.518
 H      2   1   3   1.088218   116.311   180.905
 H      4   3   2   1.088577   111.614   355.516
 H      4   3   2   1.095178   110.958   235.379
 H      4   3   2   1.095873   112.502   115.693
 H      5   3   2   1.098990   109.697   130.185
 H      5   3   2   1.094930   109.496    12.260
 H      6   5   3   1.090305   111.740    63.352
 H      6   5   3   1.090067   112.597   300.407
 H      7   6   5   1.022347   110.684   300.834
 H      7   6   5   1.021857   112.114   180.292
 H      7   6   5   1.022323   110.743    59.662

---------------------------
INTERNAL COORDINATES (A.U.)
---------------------------
 C      0   0   0   0.000000     0.000     0.000
 C      1   0   0   2.825041     0.000     0.000
 C      2   1   0   2.520503   126.113     0.000
 C      3   2   1   2.828249   124.007   359.339
 C      3   2   1   2.848737   119.587   180.499
 C      5   3   2   2.865784   111.323   251.133
 N      6   5   3   2.854710   110.486   181.859
 H      1   2   3   2.058269   110.984   180.333
 H      1   2   3   2.066593   111.519    60.622
 H      1   2   3   2.065675   111.896   300.518
 H      2   1   3   2.056433   116.311   180.905
 H      4   3   2   2.057111   111.614   355.516
 H      4   3   2   2.069587   110.958   235.379
 H      4   3   2   2.070900   112.502   115.693
 H      5   3   2   2.076789   109.697   130.185
 H      5   3   2   2.069117   109.496    12.260
 H      6   5   3   2.060378   111.740    63.352
 H      6   5   3   2.059928   112.597   300.407
 H      7   6   5   1.931956   110.684   300.834
 H      7   6   5   1.931031   112.114   180.292
 H      7   6   5   1.931910   110.743    59.662



           ************************************************************
           *        Program running with 8 parallel MPI-processes     *
           *              working on a common directory               *
           ************************************************************
           ************************************************************
           *              Shut down parallel processing               *
           ************************************************************


           ************************************************************
           *        Program running with 8 parallel MPI-processes     *
           *              working on a common directory               *
           ************************************************************

Diagonalization of the overlap matrix:
Smallest eigenvalue                        ... 9.266e-05
Time for diagonalization                   ...    0.510 sec
Threshold for overlap eigenvalues          ... 1.000e-08
Number of eigenvalues below threshold      ... 0
Time for construction of square roots      ...    0.025 sec
Total time needed                          ...    0.535 sec

-------------------
DFT GRID GENERATION
-------------------

General Integration Accuracy     IntAcc      ...  4.340
Radial Grid Type                 RadialGrid  ... Gauss-Chebyshev
Angular Grid (max. acc.)         AngularGrid ... Lebedev-194
Angular grid pruning method      GridPruning ... 3 (G Style)
Weight generation scheme         WeightScheme... Becke
Basis function cutoff            BFCut       ...    1.0000e-11
Integration weight cutoff        WCut        ...    1.0000e-14
Grids for H and He will be reduced by one unit

# of grid points (after initial pruning)     ...  44398 (   0.0 sec)
# of grid points (after weights+screening)   ...  40460 (   0.2 sec)
nearest neighbour list constructed           ...    0.0 sec
Grid point re-assignment to atoms done       ...    0.0 sec
Grid point division into batches done        ...    0.1 sec
Reduced shell lists constructed in    0.1 sec

Total number of grid points                  ...    40460
Total number of batches                      ...      644
Average number of points per batch           ...       62
Average number of grid points per atom       ...     1927
Average number of shells per batch           ...    99.57 (74.87%)
Average number of basis functions per batch  ...   232.21 (77.15%)
Average number of large shells per batch     ...    80.06 (80.40%)
Average number of large basis fcns per batch ...   188.60 (81.22%)
Maximum spatial batch extension              ...   3.05,  4.01,  2.90 au
Average spatial batch extension              ...   0.17,  0.18,  0.17 au

Time for grid setup =    0.759 sec

--------------
SCF ITERATIONS
--------------
ITER       Energy         Delta-E        Max-DP      RMS-DP      [F,P]     Damp
               ***  Starting incremental Fock matrix formation  ***
                      *** Initiating the SOSCF procedure ***
                      *** Re-Reading the Fockian *** 
                      *** Removing any level shift *** 
ITER      Energy       Delta-E        Grad      Rot      Max-DP    RMS-DP
  0   -291.31168554 -291.3116855386  0.000150  0.000150  0.000525  0.000009
               *** Restarting incremental Fock matrix formation ***
  1   -291.31168911  -0.0000035680  0.000046  0.000122  0.000113  0.000004
  2   -291.31168945  -0.0000003427  0.000014  0.000037  0.000041  0.000001
  3   -291.31168945  -0.0000000005  0.000014  0.000026  0.000021  0.000001
  4   -291.31168947  -0.0000000183  0.000005  0.000017  0.000011  0.000000
  5   -291.31168947   0.0000000004  0.000007  0.000010  0.000006  0.000000
                  ***Gradient check signals convergence***
              ***Rediagonalizing the Fockian in SOSCF/NRSCF***

               *****************************************************
               *                     SUCCESS                       *
               *           SCF CONVERGED AFTER   6 CYCLES          *
               *****************************************************

Setting up the final grid:

General Integration Accuracy     IntAcc      ...  5.010
Radial Grid Type                 RadialGrid  ... Gauss-Chebyshev
Angular Grid (max. acc.)         AngularGrid ... Lebedev-434
Angular grid pruning method      GridPruning ... 3 (G Style)
Weight generation scheme         WeightScheme... Becke
Basis function cutoff            BFCut       ...    1.0000e-11
Integration weight cutoff        WCut        ...    1.0000e-14
Grids for H and He will be reduced by one unit

# of grid points (after initial pruning)     ... 168466 (   0.0 sec)
# of grid points (after weights+screening)   ... 151551 (   0.6 sec)
nearest neighbour list constructed           ...    0.0 sec
Grid point re-assignment to atoms done       ...    0.1 sec
Grid point division into batches done        ...    1.0 sec
Reduced shell lists constructed in    1.4 sec

Total number of grid points                  ...   151551
Total number of batches                      ...     2380
Average number of points per batch           ...       63
Average number of grid points per atom       ...     7217
Average number of shells per batch           ...    98.45 (74.02%)
Average number of basis functions per batch  ...   230.14 (76.46%)
Average number of large shells per batch     ...    78.48 (79.72%)
Average number of large basis fcns per batch ...   185.03 (80.40%)
Maximum spatial batch extension              ...   3.40,  4.30,  2.84 au
Average spatial batch extension              ...   0.11,  0.12,  0.11 au

Final grid set up in    3.1 sec
Final integration                            ... done (   1.3 sec)
Change in XC energy                          ...     0.000302346
Integrated number of electrons               ...    55.999998334
Previous integrated no of electrons          ...    55.998734504
Total Energy       :         -291.31138712 Eh           -7926.98584 eV
  Last Energy change         ...   -1.0615e-09  Tolerance :   1.0000e-08
  Last MAX-Density change    ...    1.1924e-06  Tolerance :   1.0000e-07
             **** THE GBW FILE WAS UPDATED (2096_+.gbw) ****
             **** DENSITY FILE WAS UPDATED (2096_+.scfp.tmp) ****
             **** ENERGY FILE WAS UPDATED (2096_+.en.tmp) ****
Total SCF time: 0 days 0 hours 0 min 51 sec 
           ************************************************************
           *              Shut down parallel processing               *
           ************************************************************

-------------------------   --------------------
FINAL SINGLE POINT ENERGY      -291.311387122906
-------------------------   --------------------



           ************************************************************
           *        Program running with 8 parallel MPI-processes     *
           *              working on a common directory               *
           ************************************************************
------------------------------------------------------------------------------
                         ORCA SCF GRADIENT CALCULATION
------------------------------------------------------------------------------

Gradient of the Kohn-Sham DFT energy:
Kohn-Sham wavefunction type      ... RKS
Hartree-Fock exchange scaling    ...    0.250
Number of operators              ...    1
Number of atoms                  ...   21
Basis set dimensions             ...  301
Integral neglect threshold       ... 2.5e-11
Integral primitive cutoff        ... 2.5e-12

Nuclear repulsion gradient       ... done
One Electron Gradient            ... done
Pre-screening matrix             ... done
Starting the two electron gradient:
Two electron gradient done
Exchange-correlation gradient    ... done

------------------
CARTESIAN GRADIENT
------------------

   1   C   :   -0.000057076    0.000031760    0.000052576
   2   C   :    0.000054338   -0.000017361   -0.000028235
   3   C   :   -0.000083160    0.000021020   -0.000047870
   4   C   :    0.000032113    0.000029203   -0.000034713
   5   C   :   -0.000008572    0.000045869    0.000064574
   6   C   :    0.000017720    0.000047471    0.000109962
   7   N   :    0.000038359    0.000003979   -0.000100683
   8   H   :   -0.000009541    0.000011860   -0.000034636
   9   H   :    0.000003095   -0.000024930   -0.000014463
  10   H   :    0.000052021   -0.000014863   -0.000008615
  11   H   :    0.000004147   -0.000039800    0.000049676
  12   H   :    0.000021239    0.000019662   -0.000004839
  13   H   :   -0.000005436   -0.000010890    0.000018529
  14   H   :   -0.000010630    0.000003800    0.000032474
  15   H   :   -0.000012664   -0.000067124   -0.000051845
  16   H   :    0.000012851   -0.000002110   -0.000016302
  17   H   :   -0.000016028   -0.000020486   -0.000041418
  18   H   :   -0.000008986   -0.000006138    0.000004870
  19   H   :    0.000006920   -0.000005845    0.000005472
  20   H   :   -0.000017760    0.000000927    0.000014536
  21   H   :   -0.000012949   -0.000006002    0.000030948

Norm of the cartesian gradient     ...    0.000283640
RMS gradient                       ...    0.000035735
MAX gradient                       ...    0.000109962

-------
TIMINGS
-------

Total SCF gradient time            ...       37.253 sec

One electron gradient       ....       0.196 sec  (  0.5%)
Prescreening matrices       ....       0.455 sec  (  1.2%)
Two electron gradient       ....      29.808 sec  ( 80.0%)
XC gradient                 ....       4.644 sec  ( 12.5%)
           ************************************************************
           *              Shut down parallel processing               *
           ************************************************************
------------------------------------------------------------------------------
                         ORCA GEOMETRY RELAXATION STEP
------------------------------------------------------------------------------

Reading the OPT-File                    .... done
Getting information on internals        .... done
Copying old internal coords+grads       .... done
Making the new internal coordinates     .... (new redundants).... done
Validating the new internal coordinates .... (new redundants).... done
Calculating the B-matrix                .... done
Calculating the G,G- and P matrices     .... done
Transforming gradient to internals      .... done
Projecting the internal gradient        .... done
Number of atoms                         ....  21
Number of internal coordinates          ....  96
Current Energy                          ....  -291.311387123 Eh
Current gradient norm                   ....     0.000283640 Eh/bohr
Maximum allowed component of the step   ....  0.300
Current trust radius                    ....  0.300
Updating the Hessian (BFGS)             .... done
Forming the augmented Hessian           .... done
Diagonalizing the augmented Hessian     .... done
Last element of RFO vector              ....  0.999813476
Lowest eigenvalues of augmented Hessian:
 -0.000002222  0.005574260  0.011882822  0.012243663  0.013006967
Length of the computed step             ....  0.019317177
The final length of the internal step   ....  0.019317177
Converting the step to cartesian space:
 Initial RMS(Int)=    0.0019715511
Transforming coordinates:
 Iter   0:  RMS(Cart)=    0.0042482746 RMS(Int)=    0.0019714032
 Iter   1:  RMS(Cart)=    0.0000071128 RMS(Int)=    0.0000039470
 Iter   2:  RMS(Cart)=    0.0000000230 RMS(Int)=    0.0000000118
done
Storing new coordinates                 .... done

                                .--------------------.
          ----------------------|Geometry convergence|---------------------
          Item                value                 Tolerance   Converged
          -----------------------------------------------------------------
          Energy change      -0.00000176            0.00000100      NO
          RMS gradient        0.00002108            0.00003000      YES
          MAX gradient        0.00005617            0.00010000      YES
          RMS step            0.00197155            0.00060000      NO
          MAX step            0.00568547            0.00100000      NO
          ....................................................
          Max(Bonds)      0.0003      Max(Angles)    0.03
          Max(Dihed)        0.33      Max(Improp)    0.00
          -----------------------------------------------------------------

The optimization has not yet converged - more geometry cycles are needed


    ---------------------------------------------------------------------------
                         Redundant Internal Coordinates
                            (Angstroem and degrees)

        Definition                    Value    dE/dq     Step     New-Value
    ----------------------------------------------------------------------------
     1. B(C   1,C   0)                1.4949  0.000003 -0.0001    1.4949   
     2. B(C   2,C   1)                1.3338  0.000015  0.0000    1.3338   
     3. B(C   3,C   2)                1.4966 -0.000054  0.0002    1.4969   
     4. B(C   4,C   2)                1.5075  0.000015 -0.0000    1.5075   
     5. B(C   5,C   4)                1.5165  0.000009 -0.0000    1.5165   
     6. B(N   6,C   5)                1.5106 -0.000050  0.0002    1.5109   
     7. B(H   7,C   0)                1.0892  0.000008 -0.0001    1.0891   
     8. B(H   8,C   0)                1.0936 -0.000003 -0.0001    1.0935   
     9. B(H   9,C   0)                1.0931  0.000012 -0.0002    1.0929   
    10. B(H  10,C   1)                1.0882  0.000001 -0.0000    1.0882   
    11. B(H  11,C   3)                1.0886  0.000001 -0.0001    1.0885   
    12. B(H  12,C   3)                1.0952  0.000002 -0.0001    1.0951   
    13. B(H  13,C   3)                1.0959  0.000014 -0.0002    1.0957   
    14. B(H  14,C   4)                1.0990 -0.000032  0.0003    1.0992   
    15. B(H  15,C   4)                1.0949  0.000006 -0.0000    1.0949   
    16. B(H  16,C   5)                1.0903  0.000001  0.0000    1.0903   
    17. B(H  17,C   5)                1.0901  0.000010  0.0000    1.0901   
    18. B(H  18,N   6)                1.0223  0.000002 -0.0000    1.0223   
    19. B(H  19,N   6)                1.0219  0.000007 -0.0000    1.0219   
    20. B(H  20,N   6)                1.0223  0.000014  0.0001    1.0224   
    21. A(C   1,C   0,H   8)          111.52  0.000029   -0.02    111.50   
    22. A(C   1,C   0,H   9)          111.90  0.000007   -0.00    111.89   
    23. A(C   1,C   0,H   7)          110.98  0.000026   -0.01    110.97   
    24. A(H   7,C   0,H   9)          107.58 -0.000030    0.02    107.60   
    25. A(H   8,C   0,H   9)          107.23 -0.000007   -0.00    107.22   
    26. A(H   7,C   0,H   8)          107.41 -0.000029    0.02    107.42   
    27. A(C   0,C   1,H  10)          116.31  0.000036   -0.02    116.29   
    28. A(C   2,C   1,H  10)          117.57 -0.000047    0.02    117.59   
    29. A(C   0,C   1,C   2)          126.11  0.000011   -0.00    126.11   
    30. A(C   1,C   2,C   4)          119.59 -0.000056    0.02    119.61   
    31. A(C   1,C   2,C   3)          124.01  0.000021   -0.01    124.00   
    32. A(C   3,C   2,C   4)          116.40  0.000035   -0.02    116.38   
    33. A(C   2,C   3,H  11)          111.61 -0.000031    0.01    111.63   
    34. A(H  12,C   3,H  13)          106.88 -0.000016    0.01    106.90   
    35. A(C   2,C   3,H  13)          112.50 -0.000008    0.01    112.51   
    36. A(H  11,C   3,H  12)          107.71  0.000017   -0.01    107.70   
    37. A(C   2,C   3,H  12)          110.96  0.000009   -0.00    110.96   
    38. A(H  11,C   3,H  13)          106.90  0.000032   -0.02    106.88   
    39. A(H  14,C   4,H  15)          107.65  0.000030   -0.03    107.61   
    40. A(C   5,C   4,H  15)          109.43 -0.000012    0.01    109.44   
    41. A(C   2,C   4,H  15)          109.50 -0.000034    0.03    109.53   
    42. A(C   5,C   4,H  14)          109.18  0.000002   -0.01    109.17   
    43. A(C   2,C   4,H  14)          109.70 -0.000030    0.02    109.71   
    44. A(C   2,C   4,C   5)          111.32  0.000044   -0.02    111.31   
    45. A(H  16,C   5,H  17)          108.91 -0.000005    0.01    108.92   
    46. A(N   6,C   5,H  17)          106.19  0.000005   -0.01    106.18   
    47. A(C   4,C   5,H  17)          112.60 -0.000003    0.00    112.60   
    48. A(N   6,C   5,H  16)          106.60  0.000008   -0.00    106.59   
    49. A(C   4,C   5,H  16)          111.74 -0.000017    0.02    111.75   
    50. A(C   4,C   5,N   6)          110.49  0.000014   -0.02    110.47   
    51. A(C   5,N   6,H  18)          110.68 -0.000000   -0.00    110.68   
    52. A(H  19,N   6,H  20)          107.94 -0.000027    0.02    107.96   
    53. A(H  18,N   6,H  20)          107.26 -0.000004   -0.01    107.26   
    54. A(C   5,N   6,H  20)          110.74  0.000029   -0.01    110.73   
    55. A(H  18,N   6,H  19)          107.91 -0.000005    0.00    107.91   
    56. A(C   5,N   6,H  19)          112.11  0.000006   -0.00    112.11   
    57. D(H  10,C   1,C   0,H   7)      1.24 -0.000025    0.29      1.53   
    58. D(H  10,C   1,C   0,H   8)   -118.47 -0.000024    0.28   -118.19   
    59. D(C   2,C   1,C   0,H   7)   -179.67 -0.000024    0.31   -179.36   
    60. D(C   2,C   1,C   0,H   8)     60.62 -0.000023    0.31     60.93   
    61. D(C   2,C   1,C   0,H   9)    -59.48 -0.000039    0.33    -59.16   
    62. D(H  10,C   1,C   0,H   9)    121.42 -0.000040    0.30    121.73   
    63. D(C   3,C   2,C   1,C   0)     -0.66  0.000000   -0.00     -0.66   
    64. D(C   4,C   2,C   1,H  10)     -0.42 -0.000001   -0.01     -0.43   
    65. D(C   4,C   2,C   1,C   0)   -179.50 -0.000002   -0.03   -179.53   
    66. D(C   3,C   2,C   1,H  10)    178.42  0.000002    0.02    178.44   
    67. D(H  13,C   3,C   2,C   1)    115.69  0.000010   -0.02    115.68   
    68. D(H  12,C   3,C   2,C   1)   -124.62 -0.000009    0.01   -124.61   
    69. D(H  11,C   3,C   2,C   4)    174.39 -0.000002    0.03    174.42   
    70. D(H  12,C   3,C   2,C   4)     54.25 -0.000008    0.03     54.29   
    71. D(H  11,C   3,C   2,C   1)     -4.48 -0.000003    0.00     -4.48   
    72. D(H  13,C   3,C   2,C   4)    -65.43  0.000011    0.01    -65.42   
    73. D(H  15,C   4,C   2,C   3)   -166.67  0.000010   -0.17   -166.84   
    74. D(H  15,C   4,C   2,C   1)     12.26  0.000012   -0.15     12.11   
    75. D(H  14,C   4,C   2,C   3)    -48.74  0.000008   -0.18    -48.93   
    76. D(H  14,C   4,C   2,C   1)    130.19  0.000010   -0.16    130.03   
    77. D(C   5,C   4,C   2,C   3)     72.21  0.000019   -0.20     72.01   
    78. D(C   5,C   4,C   2,C   1)   -108.87  0.000021   -0.17   -109.04   
    79. D(H  17,C   5,C   4,H  14)     61.66 -0.000020    0.22     61.88   
    80. D(H  17,C   5,C   4,C   2)    -59.59 -0.000012    0.22    -59.37   
    81. D(H  16,C   5,C   4,H  15)    -57.82 -0.000011    0.21    -57.60   
    82. D(H  16,C   5,C   4,H  14)   -175.40 -0.000042    0.26   -175.14   
    83. D(H  16,C   5,C   4,C   2)     63.35 -0.000033    0.25     63.60   
    84. D(N   6,C   5,C   4,H  15)     60.69 -0.000003    0.21     60.90   
    85. D(N   6,C   5,C   4,H  14)    -56.89 -0.000034    0.25    -56.64   
    86. D(H  17,C   5,C   4,H  15)    179.24  0.000011    0.18    179.42   
    87. D(N   6,C   5,C   4,C   2)   -178.14 -0.000025    0.25   -177.89   
    88. D(H  20,N   6,C   5,H  17)    -62.72  0.000004    0.01    -62.71   
    89. D(H  20,N   6,C   5,C   4)     59.66  0.000011   -0.00     59.66   
    90. D(H  19,N   6,C   5,H  17)     57.91 -0.000007    0.03     57.94   
    91. D(H  19,N   6,C   5,H  16)    -58.11 -0.000007    0.02    -58.09   
    92. D(H  19,N   6,C   5,C   4)   -179.71  0.000001    0.02   -179.69   
    93. D(H  18,N   6,C   5,H  17)    178.45 -0.000009    0.03    178.48   
    94. D(H  20,N   6,C   5,H  16)   -178.74  0.000003    0.01   -178.73   
    95. D(H  18,N   6,C   5,H  16)     62.43 -0.000009    0.02     62.46   
    96. D(H  18,N   6,C   5,C   4)    -59.17 -0.000001    0.02    -59.15   
    ----------------------------------------------------------------------------

         *************************************************************
         *                GEOMETRY OPTIMIZATION CYCLE   3            *
         *************************************************************
---------------------------------
CARTESIAN COORDINATES (ANGSTROEM)
---------------------------------
  C      0.967001    0.000360   -2.921718
  C      0.846015    0.406838   -1.488263
  C     -0.184839    0.148463   -0.682275
  C     -1.413277   -0.594333   -1.106331
  C     -0.157575    0.639617    0.742683
  C      0.021696   -0.507934    1.717713
  N     -0.005220   -0.001244    3.140844
  H      1.916204    0.330091   -3.341631
  H      0.170389    0.436662   -3.530637
  H      0.910566   -1.084272   -3.043902
  H      1.676099    0.978188   -1.077525
  H     -1.394345   -0.827160   -2.169430
  H     -2.314846   -0.004245   -0.910813
  H     -1.533239   -1.544795   -0.574552
  H     -1.095683    1.164730    0.971920
  H      0.661696    1.355154    0.867568
  H      0.981896   -1.006588    1.582815
  H     -0.774709   -1.248586    1.643914
  H      0.736927    0.685043    3.293839
  H      0.118704   -0.754751    3.819858
  H     -0.893624    0.462554    3.343122

----------------------------
CARTESIAN COORDINATES (A.U.)
----------------------------
  NO LB      ZA    FRAG    MASS        X           Y           Z
   0 C     6.0000    0    12.011          1.827366750958298          0.000679405989625         -5.521246295714109
   1 C     6.0000    0    12.011          1.598735957744169          0.768812664329996         -2.812408566766355
   2 C     6.0000    0    12.011         -0.349295689689551          0.280553511302920         -1.289312229053691
   3 C     6.0000    0    12.011         -2.670706260605357         -1.123126357589808         -2.090662514257279
   4 C     6.0000    0    12.011         -0.297774293695663          1.208700120502176          1.403467844116927
   5 C     6.0000    0    12.011          0.040998932644034         -0.959857012900851          3.246006507330876
   6 N     7.0000    0    14.007         -0.009865192718015         -0.002349952036630          5.935334854917305
   7 H     1.0000    0     1.008          3.621100967631034          0.623780808390687         -6.314767557692234
   8 H     1.0000    0     1.008          0.321988360649757          0.825171116553280         -6.671936852490079
   9 H     1.0000    0     1.008          1.720719678357427         -2.048977141845065         -5.752140217402341
  10 H     1.0000    0     1.008          3.167367173327513          1.848507592740187         -2.036227696498022
  11 H     1.0000    0     1.008         -2.634930709387664         -1.563105013403369         -4.099628573386496
  12 H     1.0000    0     1.008         -4.374425388253344         -0.008022552057689         -1.721186764051901
  13 H     1.0000    0     1.008         -2.897401384499205         -2.919239870395971         -1.085745807336589
  14 H     1.0000    0     1.008         -2.070541320338573          2.201020019975278          1.836663261380788
  15 H     1.0000    0     1.008          1.250423479963669          2.560869073643820          1.639465793097117
  16 H     1.0000    0     1.008          1.855514858469235         -1.902175326478536          2.991087195484646
  17 H     1.0000    0     1.008         -1.463987189657362         -2.359486104387027          3.106547519548315
  18 H     1.0000    0     1.008          1.392590304853865          1.294544497962887          6.224453310384165
  19 H     1.0000    0     1.008          0.224318622912676         -1.426272032273430          7.218484940983107
  20 H     1.0000    0     1.008         -1.688703688846581          0.874100849754890          6.317585949302667

--------------------------------
INTERNAL COORDINATES (ANGSTROEM)
--------------------------------
 C      0   0   0   0.000000     0.000     0.000
 C      1   0   0   1.494877     0.000     0.000
 C      2   1   0   1.333804   126.109     0.000
 C      3   2   1   1.496873   124.001   359.335
 C      3   2   1   1.507475   119.611   180.467
 C      5   3   2   1.516474   111.306   250.962
 N      6   5   3   1.510881   110.471   182.106
 H      1   2   3   1.089053   110.974   180.642
 H      1   2   3   1.093496   111.501    60.928
 H      1   2   3   1.092950   111.892   300.843
 H      2   1   3   1.088203   116.293   180.883
 H      4   3   2   1.088460   111.627   355.517
 H      4   3   2   1.095106   110.957   235.386
 H      4   3   2   1.095700   112.508   115.677
 H      5   3   2   1.099245   109.714   130.027
 H      5   3   2   1.094895   109.529    12.112
 H      6   5   3   1.090338   111.755    63.603
 H      6   5   3   1.090079   112.598   300.628
 H      7   6   5   1.022341   110.680   300.850
 H      7   6   5   1.021856   112.114   180.307
 H      7   6   5   1.022392   110.730    59.660

---------------------------
INTERNAL COORDINATES (A.U.)
---------------------------
 C      0   0   0   0.000000     0.000     0.000
 C      1   0   0   2.824908     0.000     0.000
 C      2   1   0   2.520525   126.109     0.000
 C      3   2   1   2.828679   124.001   359.335
 C      3   2   1   2.848715   119.611   180.467
 C      5   3   2   2.865721   111.306   250.962
 N      6   5   3   2.855152   110.471   182.106
 H      1   2   3   2.058012   110.974   180.642
 H      1   2   3   2.066407   111.501    60.928
 H      1   2   3   2.065376   111.892   300.843
 H      2   1   3   2.056405   116.293   180.883
 H      4   3   2   2.056892   111.627   355.517
 H      4   3   2   2.069451   110.957   235.386
 H      4   3   2   2.070573   112.508   115.677
 H      5   3   2   2.077272   109.714   130.027
 H      5   3   2   2.069051   109.529    12.112
 H      6   5   3   2.060441   111.755    63.603
 H      6   5   3   2.059950   112.598   300.628
 H      7   6   5   1.931944   110.680   300.850
 H      7   6   5   1.931028   112.114   180.307
 H      7   6   5   1.932041   110.730    59.660



           ************************************************************
           *        Program running with 8 parallel MPI-processes     *
           *              working on a common directory               *
           ************************************************************
           ************************************************************
           *              Shut down parallel processing               *
           ************************************************************


           ************************************************************
           *        Program running with 8 parallel MPI-processes     *
           *              working on a common directory               *
           ************************************************************

Diagonalization of the overlap matrix:
Smallest eigenvalue                        ... 9.269e-05
Time for diagonalization                   ...    0.167 sec
Threshold for overlap eigenvalues          ... 1.000e-08
Number of eigenvalues below threshold      ... 0
Time for construction of square roots      ...    0.019 sec
Total time needed                          ...    0.187 sec

-------------------
DFT GRID GENERATION
-------------------

General Integration Accuracy     IntAcc      ...  4.340
Radial Grid Type                 RadialGrid  ... Gauss-Chebyshev
Angular Grid (max. acc.)         AngularGrid ... Lebedev-194
Angular grid pruning method      GridPruning ... 3 (G Style)
Weight generation scheme         WeightScheme... Becke
Basis function cutoff            BFCut       ...    1.0000e-11
Integration weight cutoff        WCut        ...    1.0000e-14
Grids for H and He will be reduced by one unit

# of grid points (after initial pruning)     ...  44398 (   0.0 sec)
# of grid points (after weights+screening)   ...  40462 (   0.2 sec)
nearest neighbour list constructed           ...    0.0 sec
Grid point re-assignment to atoms done       ...    0.0 sec
Grid point division into batches done        ...    0.1 sec
Reduced shell lists constructed in    0.2 sec

Total number of grid points                  ...    40462
Total number of batches                      ...      643
Average number of points per batch           ...       62
Average number of grid points per atom       ...     1927
Average number of shells per batch           ...    99.27 (74.64%)
Average number of basis functions per batch  ...   231.46 (76.90%)
Average number of large shells per batch     ...    79.95 (80.54%)
Average number of large basis fcns per batch ...   188.39 (81.39%)
Maximum spatial batch extension              ...   3.05,  4.01,  2.91 au
Average spatial batch extension              ...   0.17,  0.18,  0.17 au

Time for grid setup =    0.731 sec

--------------
SCF ITERATIONS
--------------
ITER       Energy         Delta-E        Max-DP      RMS-DP      [F,P]     Damp
               ***  Starting incremental Fock matrix formation  ***
                      *** Initiating the SOSCF procedure ***
                      *** Re-Reading the Fockian *** 
                      *** Removing any level shift *** 
ITER      Energy       Delta-E        Grad      Rot      Max-DP    RMS-DP
  0   -291.31167707 -291.3116770727  0.000315  0.000315  0.000880  0.000017
               *** Restarting incremental Fock matrix formation ***
  1   -291.31168872  -0.0000116437  0.000090  0.000208  0.000230  0.000007
  2   -291.31168990  -0.0000011794  0.000014  0.000050  0.000050  0.000001
  3   -291.31168991  -0.0000000168  0.000015  0.000016  0.000020  0.000000
  4   -291.31168993  -0.0000000125  0.000004  0.000013  0.000008  0.000000
  5   -291.31168993  -0.0000000005  0.000005  0.000008  0.000006  0.000000
                  ***Gradient check signals convergence***
              ***Rediagonalizing the Fockian in SOSCF/NRSCF***

               *****************************************************
               *                     SUCCESS                       *
               *           SCF CONVERGED AFTER   6 CYCLES          *
               *****************************************************

Setting up the final grid:

General Integration Accuracy     IntAcc      ...  5.010
Radial Grid Type                 RadialGrid  ... Gauss-Chebyshev
Angular Grid (max. acc.)         AngularGrid ... Lebedev-434
Angular grid pruning method      GridPruning ... 3 (G Style)
Weight generation scheme         WeightScheme... Becke
Basis function cutoff            BFCut       ...    1.0000e-11
Integration weight cutoff        WCut        ...    1.0000e-14
Grids for H and He will be reduced by one unit

# of grid points (after initial pruning)     ... 168466 (   0.0 sec)
# of grid points (after weights+screening)   ... 151552 (   3.2 sec)
nearest neighbour list constructed           ...    0.0 sec
Grid point re-assignment to atoms done       ...    0.0 sec
Grid point division into batches done        ...    1.1 sec
Reduced shell lists constructed in    1.5 sec

Total number of grid points                  ...   151552
Total number of batches                      ...     2381
Average number of points per batch           ...       63
Average number of grid points per atom       ...     7217
Average number of shells per batch           ...    98.41 (73.99%)
Average number of basis functions per batch  ...   230.03 (76.42%)
Average number of large shells per batch     ...    78.51 (79.77%)
Average number of large basis fcns per batch ...   185.04 (80.44%)
Maximum spatial batch extension              ...   3.94,  4.24,  2.81 au
Average spatial batch extension              ...   0.11,  0.12,  0.11 au

Final grid set up in    5.2 sec
Final integration                            ... done (   1.2 sec)
Change in XC energy                          ...     0.000301201
Integrated number of electrons               ...    55.999997854
Previous integrated no of electrons          ...    55.998718877
Total Energy       :         -291.31138873 Eh           -7926.98589 eV
  Last Energy change         ...   -1.1308e-09  Tolerance :   1.0000e-08
  Last MAX-Density change    ...    1.7992e-06  Tolerance :   1.0000e-07
             **** THE GBW FILE WAS UPDATED (2096_+.gbw) ****
             **** DENSITY FILE WAS UPDATED (2096_+.scfp.tmp) ****
             **** ENERGY FILE WAS UPDATED (2096_+.en.tmp) ****
Total SCF time: 0 days 0 hours 0 min 52 sec 
           ************************************************************
           *              Shut down parallel processing               *
           ************************************************************

-------------------------   --------------------
FINAL SINGLE POINT ENERGY      -291.311388725538
-------------------------   --------------------



           ************************************************************
           *        Program running with 8 parallel MPI-processes     *
           *              working on a common directory               *
           ************************************************************
------------------------------------------------------------------------------
                         ORCA SCF GRADIENT CALCULATION
------------------------------------------------------------------------------

Gradient of the Kohn-Sham DFT energy:
Kohn-Sham wavefunction type      ... RKS
Hartree-Fock exchange scaling    ...    0.250
Number of operators              ...    1
Number of atoms                  ...   21
Basis set dimensions             ...  301
Integral neglect threshold       ... 2.5e-11
Integral primitive cutoff        ... 2.5e-12

[...]
           ************************************************************
------------------------------------------------------------------------------
                         ORCA GEOMETRY RELAXATION STEP
------------------------------------------------------------------------------

Reading the OPT-File                    .... done
Getting information on internals        .... done
Copying old internal coords+grads       .... done
Making the new internal coordinates     .... (new redundants).... done
Validating the new internal coordinates .... (new redundants).... done
Calculating the B-matrix                .... done
Calculating the G,G- and P matrices     .... done
Transforming gradient to internals      .... done
Projecting the internal gradient        .... done
Number of atoms                         ....  21
Number of internal coordinates          ....  96
Current Energy                          ....  -291.311493269 Eh
Current gradient norm                   ....     0.005590047 Eh/bohr
Maximum allowed component of the step   ....  0.300
Current trust radius                    ....  0.300
Updating the Hessian (BFGS)             .... done
Forming the augmented Hessian           .... done
Diagonalizing the augmented Hessian     .... done
Last element of RFO vector              ....  0.898183909
Lowest eigenvalues of augmented Hessian:
 -0.000613958  0.000155609  0.008872963  0.011901471  0.012347925
Length of the computed step             ....  0.489454226
Warning: the length of the step is outside the trust region - taking restricted step instead
The input lambda is                     ....    -0.000614
   iter:   1  x=   -0.000854  g=  624.134948 f(x)=     0.149565
   iter:   2  x=   -0.001075  g=  246.873932 f(x)=     0.054538
   iter:   3  x=   -0.001189  g=  129.892296 f(x)=     0.014816
   iter:   4  x=   -0.001208  g=   98.395918 f(x)=     0.001913
   iter:   5  x=   -0.001208  g=   94.127117 f(x)=     0.000042
   iter:   6  x=   -0.001208  g=   94.032395 f(x)=     0.000000
   iter:   7  x=   -0.001208  g=   94.032347 f(x)=     0.000000
The output lambda is                    ....    -0.001208 (7 iterations)
The final length of the internal step   ....  0.300000000
Converting the step to cartesian space:
 Initial RMS(Int)=    0.0306186218
Transforming coordinates:
 Iter   0:  RMS(Cart)=    0.0703161314 RMS(Int)=    0.0306563560
 Iter   1:  RMS(Cart)=    0.0034239492 RMS(Int)=    0.0025073194
 Iter   2:  RMS(Cart)=    0.0003746018 RMS(Int)=    0.0002294652
 Iter   3:  RMS(Cart)=    0.0000443318 RMS(Int)=    0.0000350334
 Iter   4:  RMS(Cart)=    0.0000053325 RMS(Int)=    0.0000034266
 Iter   5:  RMS(Cart)=    0.0000006324 RMS(Int)=    0.0000005112
 Iter   6:  RMS(Cart)=    0.0000000777 RMS(Int)=    0.0000000529
done
Storing new coordinates                 .... done

                                .--------------------.
          ----------------------|Geometry convergence|---------------------
          Item                value                 Tolerance   Converged
          -----------------------------------------------------------------
          Energy change      -0.00002752            0.00000100      NO
          RMS gradient        0.00050762            0.00003000      NO
          MAX gradient        0.00202642            0.00010000      NO
          RMS step            0.03061862            0.00060000      NO
          MAX step            0.12929376            0.00100000      NO
          ....................................................
          Max(Bonds)      0.0086      Max(Angles)    1.67
          Max(Dihed)        7.41      Max(Improp)    0.00
          -----------------------------------------------------------------

The optimization has not yet converged - more geometry cycles are needed


    ---------------------------------------------------------------------------
                         Redundant Internal Coordinates
                            (Angstroem and degrees)

        Definition                    Value    dE/dq     Step     New-Value
    ----------------------------------------------------------------------------
     1. B(C   1,C   0)                1.4961  0.001585 -0.0086    1.4875   
     2. B(C   2,C   1)                1.3332 -0.001248  0.0023    1.3356   
     3. B(C   3,C   2)                1.4980  0.000096 -0.0001    1.4979   
     4. B(C   4,C   2)                1.5050 -0.000851  0.0033    1.5083   
     5. B(C   5,C   4)                1.5165 -0.000179  0.0007    1.5172   
     6. B(N   6,C   5)                1.5134  0.000685 -0.0022    1.5111   
     7. B(H   7,C   0)                1.0898 -0.000002  0.0010    1.0908   
     8. B(H   8,C   0)                1.0957  0.000482 -0.0028    1.0929   
     9. B(H   9,C   0)                1.0917  0.000554 -0.0026    1.0891   
    10. B(H  10,C   1)                1.0881 -0.000096  0.0009    1.0890   
    11. B(H  11,C   3)                1.0892  0.000733 -0.0025    1.0866   
    12. B(H  12,C   3)                1.0956  0.000217 -0.0008    1.0947   
    13. B(H  13,C   3)                1.0964  0.000442 -0.0021    1.0943   
    14. B(H  14,C   4)                1.0997 -0.000223  0.0014    1.1011   
    15. B(H  15,C   4)                1.0947  0.000031 -0.0003    1.0944   
    16. B(H  16,C   5)                1.0899 -0.000199  0.0007    1.0906   
    17. B(H  17,C   5)                1.0893 -0.000314  0.0010    1.0904   
    18. B(H  18,N   6)                1.0224  0.000005 -0.0000    1.0224   
    19. B(H  19,N   6)                1.0214 -0.000189  0.0006    1.0220   
    20. B(H  20,N   6)                1.0214 -0.000548  0.0016    1.0231   
    21. A(C   1,C   0,H   8)          110.80 -0.000039   -0.11    110.69   
    22. A(C   1,C   0,H   9)          112.26 -0.000604    0.67    112.94   
    23. A(C   1,C   0,H   7)          110.77 -0.000125   -0.39    110.38   
    24. A(H   7,C   0,H   9)          108.17  0.000509   -0.35    107.83   
    25. A(H   8,C   0,H   9)          107.31 -0.000158    0.65    107.96   
    26. A(H   7,C   0,H   8)          107.32  0.000476   -0.52    106.81   
    27. A(C   0,C   1,H  10)          115.91  0.000711   -0.97    114.94   
    28. A(C   2,C   1,H  10)          117.82  0.001192   -0.69    117.13   
    29. A(C   0,C   1,C   2)          126.26 -0.001905    1.67    127.93   
    30. A(C   1,C   2,C   4)          119.66  0.001326   -0.76    118.90   
    31. A(C   1,C   2,C   3)          123.90 -0.002026    1.43    125.34   
    32. A(C   3,C   2,C   4)          116.39  0.000694   -0.65    115.74   
    33. A(C   2,C   3,H  11)          111.69  0.000021    0.35    112.03   
    34. A(H  12,C   3,H  13)          107.27  0.000337   -0.32    106.96   
    35. A(C   2,C   3,H  13)          112.88  0.000243   -0.16    112.72   
    36. A(H  11,C   3,H  12)          107.27 -0.000076   -0.01    107.26   
    37. A(C   2,C   3,H  12)          110.80 -0.000103   -0.10    110.71   
    38. A(H  11,C   3,H  13)          106.62 -0.000435    0.22    106.85   
    39. A(H  14,C   4,H  15)          107.06 -0.000386    0.39    107.45   
    40. A(C   5,C   4,H  15)          109.36 -0.000021    0.03    109.39   
    41. A(C   2,C   4,H  15)          109.73  0.000326   -0.19    109.54   
    42. A(C   5,C   4,H  14)          109.08 -0.000073    0.03    109.11   
    43. A(C   2,C   4,H  14)          109.88  0.000328   -0.25    109.63   
    44. A(C   2,C   4,C   5)          111.62 -0.000186   -0.01    111.61   
    45. A(H  16,C   5,H  17)          109.11  0.000158   -0.24    108.87   
    46. A(N   6,C   5,H  17)          106.07 -0.000092    0.16    106.23   
    47. A(C   4,C   5,H  17)          112.51 -0.000105    0.05    112.56   
    48. A(N   6,C   5,H  16)          106.24 -0.000389    0.24    106.48   
    49. A(C   4,C   5,H  16)          112.10  0.000304   -0.17    111.93   
    50. A(C   4,C   5,N   6)          110.45  0.000086   -0.01    110.44   
    51. A(C   5,N   6,H  18)          110.67  0.000015    0.02    110.69   
    52. A(H  19,N   6,H  20)          108.29  0.000503   -0.25    108.04   
    53. A(H  18,N   6,H  20)          107.27  0.000181    0.03    107.30   
    54. A(C   5,N   6,H  20)          110.39 -0.000686    0.29    110.68   
    55. A(H  18,N   6,H  19)          107.97  0.000065   -0.04    107.92   
    56. A(C   5,N   6,H  19)          112.09 -0.000042   -0.06    112.03   
    57. D(H  10,C   1,C   0,H   7)     21.73 -0.000087    5.74     27.47   
    58. D(H  10,C   1,C   0,H   8)    -97.27 -0.000575    6.70    -90.57   
    59. D(C   2,C   1,C   0,H   7)   -159.74 -0.000146    6.45   -153.29   
    60. D(C   2,C   1,C   0,H   8)     81.26 -0.000635    7.41     88.67   
    61. D(C   2,C   1,C   0,H   9)    -38.70  0.000001    6.20    -32.49   
    62. D(H  10,C   1,C   0,H   9)    142.77  0.000061    5.49    148.27   
    63. D(C   3,C   2,C   1,C   0)     -0.95  0.000055    0.17     -0.78   
    64. D(C   4,C   2,C   1,H  10)      0.15  0.000143   -0.55     -0.40   
    65. D(C   4,C   2,C   1,C   0)   -178.36  0.000211   -1.27   -179.63   
    66. D(C   3,C   2,C   1,H  10)    177.56 -0.000013    0.89    178.44   
    67. D(H  13,C   3,C   2,C   1)    115.17 -0.000217   -1.78    113.39   
    68. D(H  12,C   3,C   2,C   1)   -124.50  0.000311   -2.36   -126.86   
    69. D(H  11,C   3,C   2,C   4)    172.53  0.000026   -0.83    171.70   
    70. D(H  12,C   3,C   2,C   4)     52.99  0.000177   -0.98     52.01   
    71. D(H  11,C   3,C   2,C   1)     -4.96  0.000159   -2.21     -7.17   
    72. D(H  13,C   3,C   2,C   4)    -67.34 -0.000350   -0.40    -67.74   
    73. D(H  15,C   4,C   2,C   3)   -169.81 -0.000022    0.02   -169.79   
    74. D(H  15,C   4,C   2,C   1)      7.79 -0.000238    1.40      9.19   
    75. D(H  14,C   4,C   2,C   3)    -52.35 -0.000104    0.24    -52.12   
    76. D(H  14,C   4,C   2,C   1)    125.25 -0.000320    1.62    126.86   
    77. D(C   5,C   4,C   2,C   3)     68.79 -0.000096    0.11     68.90   
    78. D(C   5,C   4,C   2,C   1)   -113.61 -0.000312    1.49   -112.13   
    79. D(H  17,C   5,C   4,H  14)     68.62  0.000386   -1.36     67.25   
    80. D(H  17,C   5,C   4,C   2)    -52.99  0.000144   -1.07    -54.06   
    81. D(H  16,C   5,C   4,H  15)    -51.19  0.000232   -1.26    -52.45   
    82. D(H  16,C   5,C   4,H  14)   -167.97  0.000748   -1.77   -169.74   
    83. D(H  16,C   5,C   4,C   2)     70.42  0.000506   -1.48     68.95   
    84. D(N   6,C   5,C   4,H  15)     67.07 -0.000005   -1.07     66.00   
    85. D(N   6,C   5,C   4,H  14)    -49.70  0.000512   -1.59    -51.29   
    86. D(H  17,C   5,C   4,H  15)   -174.61 -0.000130   -0.85   -175.46   
    87. D(N   6,C   5,C   4,C   2)   -171.31  0.000270   -1.29   -172.60   
    88. D(H  20,N   6,C   5,H  17)    -61.90 -0.000068    0.24    -61.66   
    89. D(H  20,N   6,C   5,C   4)     60.29 -0.000202    0.39     60.68   
    90. D(H  19,N   6,C   5,H  17)     58.91  0.000068    0.09     59.00   
    91. D(H  19,N   6,C   5,H  16)    -57.11  0.000110    0.17    -56.94   
    92. D(H  19,N   6,C   5,C   4)   -178.90 -0.000067    0.24   -178.67   
    93. D(H  18,N   6,C   5,H  17)    179.50  0.000133    0.00    179.51   
    94. D(H  20,N   6,C   5,H  16)   -177.92 -0.000025    0.33   -177.59   
    95. D(H  18,N   6,C   5,H  16)     63.48  0.000175    0.09     63.57   
    96. D(H  18,N   6,C   5,C   4)    -58.31 -0.000002    0.15    -58.16   
    ----------------------------------------------------------------------------



WARNING!!!!!!!
The optimization did not converge but reached the maximum number of
 optimization cycles.
Nevertheless we allow to calculate frequencies and other properties at this point.



                            ***************************************
                            *     ORCA property calculations      *
                            ***************************************

                                    ---------------------
                                    Active property flags
                                    ---------------------




           ************************************************************
           *        Program running with 8 parallel MPI-processes     *
           *              working on a common directory               *
           ************************************************************

-------------------------------------------------------------------------------
                               ORCA SCF HESSIAN
-------------------------------------------------------------------------------

Hessian of the Kohn-Sham DFT energy:
Kohn-Sham wavefunction type                      ... RKS
Hartree-Fock exchange scaling                    ...    0.250
Number of operators                              ...    1
Number of atoms                                  ...   21
Basis set dimensions                             ...  301
Integral neglect threshold                       ... 2.5e-11
Integral primitive cutoff                        ... 2.5e-12

Setting up DFT Hessian calculations              ... 
Electron density on the grid                     ... found on disk
Electron density on the final grid               ... found on disk
Building xc-kernel on the grid                   ... done   (      0.0 sec)
Building xc-kernel on the final grid             ... done   (      0.1 sec)
                                                     done   (      2.5 sec)

Nuclear repulsion Hessian                        ... done   (      0.0 sec)

----------------------------------------------
Forming right-hand sides of CP-SCF equations     ...
----------------------------------------------
One electron integral derivatives                ... done   (      0.3 sec)
Transforming the overlap derivative matrices     ... done   (      0.4 sec)
Making the Q(x) pseudodensities                  ... done   (      0.5 sec)
Adding the E*S(x)*S(y) terms to the Hessian      ... done   (      0.0 sec)
Calculating energy weighted overlap derivatives  ... done   (      0.0 sec)
Two electron integral derivatives                ... done   (     48.8 sec)
Exchange-correlation integral derivatives        ... done   (     68.8 sec)
tr(F(y)Q(x)) contribution to the Hessian         ... done   (      0.0 sec)
Response fock operator R(S(x))                   ... done   (    218.5 sec)
XC Response fock operator R(S(x))                ... done   (     28.5 sec)
tr(F(y)S(x)) contribution to the Hessian         ... done   (      0.0 sec)
Transforming and finalizing RHSs                 ... done   (      0.1 sec)

----------------------------------------------
Solving the CP-SCF equations                     ...
----------------------------------------------
     CP-SCF ITERATION   0: 
     CP-SCF ITERATION   1:  85528.569872600
     CP-SCF ITERATION   2:  49119.451669222
     CP-SCF ITERATION   3:   4941.019381902
     CP-SCF ITERATION   4:   1381.777800577
     CP-SCF ITERATION   5:    475.992064629
     CP-SCF ITERATION   6:     43.096813936
     CP-SCF ITERATION   7:     11.396794373
     CP-SCF ITERATION   8:      4.193790026
     CP-SCF ITERATION   9:      0.538613084
     CP-SCF ITERATION  10:      0.167078480
     CP-SCF ITERATION  11:      0.042596422
     CP-SCF ITERATION  12:      0.005645673
     CP-SCF ITERATION  13:      0.001112319
     CP-SCF ITERATION  14:      0.000399410
     CP-SCF ITERATION  15:      0.001067323
     CP-SCF ITERATION  16:      0.000623300
     CP-SCF ITERATION  17:      0.001541791
     CP-SCF ITERATION  18:      0.003485189
     CP-SCF ITERATION  19:      0.001943950
     CP-SCF ITERATION  20:      0.000371232
     CP-SCF ITERATION  21:      0.081405822
     CP-SCF ITERATION  22:      0.046485443
     CP-SCF ITERATION  23:      0.027415326
     CP-SCF ITERATION  24:      0.023300042
     CP-SCF ITERATION  25:      0.007648772
     CP-SCF ITERATION  26:      0.210276607
     CP-SCF ITERATION  27:      0.001933478
     CP-SCF ITERATION  28:      0.001495791
     CP-SCF ITERATION  29:      0.030663516
     CP-SCF ITERATION  30:      0.144567624
     CP-SCF ITERATION  31:      0.026679842
     CP-SCF ITERATION  32:      0.000925001
     CP-SCF ITERATION  33:      0.001951034
     CP-SCF ITERATION  34:      0.000391741
     CP-SCF ITERATION  35:      0.003865122
     CP-SCF ITERATION  36:      0.000260580
     CP-SCF ITERATION  37:      0.014734172
     CP-SCF ITERATION  38:      0.013222252
     CP-SCF ITERATION  39:      0.000612056
     CP-SCF ITERATION  40:      0.000216258
     CP-SCF ITERATION  41:      0.003970491
     CP-SCF ITERATION  42:      0.008019703
     CP-SCF ITERATION  43:      0.001257365
     CP-SCF ITERATION  44:      0.000392590
     CP-SCF ITERATION  45:      0.007669801
     CP-SCF ITERATION  46:      0.002569833
     CP-SCF ITERATION  47:      0.001174969
     CP-SCF ITERATION  48:      0.003034714
     CP-SCF ITERATION  49:      0.010431266
     CP-SCF ITERATION  50:      0.001230558
     CP-SCF ITERATION  51:      0.001115035
     CP-SCF ITERATION  52:      0.001857504
     CP-SCF ITERATION  53:      0.015404770
     CP-SCF ITERATION  54:      0.004229811
     CP-SCF ITERATION  55:      0.006703911
     CP-SCF ITERATION  56:      0.001287648
     CP-SCF ITERATION  57:      0.005505332
     CP-SCF ITERATION  58:      0.712777838
     CP-SCF ITERATION  59:      0.003208532
     CP-SCF ITERATION  60:      0.009063134
     CP-SCF ITERATION  61:      0.006896957
     CP-SCF ITERATION  62:      0.004341722
     CP-SCF ITERATION  63:      0.028132463
     CP-SCF ITERATION  64:      0.072346796
     CP-SCF ITERATION  65:      0.006127139
     CP-SCF ITERATION  66:      0.076255210
     CP-SCF ITERATION  67:      0.017342061
     CP-SCF ITERATION  68:      0.012250191
     CP-SCF ITERATION  69:      0.000633685
     CP-SCF ITERATION  70:      0.017390174
     CP-SCF ITERATION  71:      0.002198847
     CP-SCF ITERATION  72:      0.001204066
     CP-SCF ITERATION  73:      0.002062489
     CP-SCF ITERATION  74:      0.004109305
     CP-SCF ITERATION  75:      0.004132203
     CP-SCF ITERATION  76:      0.014366654
     CP-SCF ITERATION  77:      0.003004591
     CP-SCF ITERATION  78:      0.006122445
     CP-SCF ITERATION  79:      0.009615120
     CP-SCF ITERATION  80:      0.005235574
     CP-SCF ITERATION  81:      0.000431719
     CP-SCF ITERATION  82:      0.001725470
     CP-SCF ITERATION  83:      0.000910256
     CP-SCF ITERATION  84:     71.843329729
     CP-SCF ITERATION  85:      0.000887419
     CP-SCF ITERATION  86:      0.000714455
     CP-SCF ITERATION  87:      0.002649604
     CP-SCF ITERATION  88:      0.019579364
     CP-SCF ITERATION  89:      0.053177105
     CP-SCF ITERATION  90:      0.015858177
     CP-SCF ITERATION  91:      0.001650855
     CP-SCF ITERATION  92:      0.006856732
     CP-SCF ITERATION  93:      0.080210146
     CP-SCF ITERATION  94:      0.007277621
     CP-SCF ITERATION  95:      0.014402030
     CP-SCF ITERATION  96:      0.005019388
     CP-SCF ITERATION  97:      0.022312165
     CP-SCF ITERATION  98:      0.067622770
     CP-SCF ITERATION  99:      0.003370801
     CP-SCF ITERATION 100:      0.043664075
     CP-SCF ITERATION 101:      0.000445316
     CP-SCF ITERATION 102:      0.001923572
     CP-SCF ITERATION 103:      1.714628680
     CP-SCF ITERATION 104:      3.156024868
     CP-SCF ITERATION 105:      0.303927133
     CP-SCF ITERATION 106:      0.002568392
     CP-SCF ITERATION 107: 
Warning    : ERROR CODE RETURNED FROM CP-SCF PROGRAM
Codes      : res=1,cmd=
Consequence: aborting the Z-vector calculation
Please check 2096_+.proc7.cpout for details

Error (ORCA_SCFHESS): Solution of the CP-SCF equations failed.Call to PAL_Abort: exiting
Error returned by the SCF Hessian program
CALLING COMMAND: mpirun -np 8  /scicore/home/lilienfeld/christea/opt/orca_3_0_3_linux_x86-64//orca_scfhess_mpi 2096_+.scfhess.inp
RETURN CODE    : 32000
Aborting the run
