
                                 *****************
                                 * O   R   C   A *
                                 *****************

           --- An Ab Initio, DFT and Semiempirical electronic structure package ---

                  #######################################################
                  #                        -***-                        #
                  #  Department of molecular theory and spectroscopy    #
                  #              Directorship: Frank Neese              #
                  # Max Planck Institute for Chemical Energy Conversion #
                  #                  D-45470 Muelheim/Ruhr              #
                  #                       Germany                       #
                  #                                                     #
                  #                  All rights reserved                #
                  #                        -***-                        #
                  #######################################################


                         Program Version 3.0.3 - RELEASE   -


 With contributions from (in alphabetic order):
   Ute Becker             : Parallelization
   Dmytro Bykov           : SCF Hessian
   Dmitry Ganyushin       : Spin-Orbit,Spin-Spin,Magnetic field MRCI
   Andreas Hansen         : Spin unrestricted coupled pair/coupled cluster methods
   Dimitrios Liakos       : Extrapolation schemes; parallel MDCI
   Robert Izsak           : Overlap fitted RIJCOSX, COSX-SCS-MP3
   Christian Kollmar      : KDIIS, OOCD, Brueckner-CCSD(T), CCSD density
   Simone Kossmann        : Meta GGA functionals, TD-DFT gradient, OOMP2, MP2 Hessian
   Taras Petrenko         : DFT Hessian,TD-DFT gradient, ASA and ECA modules, normal mode analysis, Resonance Raman, ABS, FL, XAS/XES, NRVS
   Christoph Reimann      : Effective Core Potentials
   Michael Roemelt        : Restricted open shell CIS
   Christoph Riplinger    : Improved optimizer, TS searches, QM/MM, DLPNO-CCSD
   Barbara Sandhoefer     : DKH picture change effects
   Igor Schapiro          : Molecular dynamics
   Kantharuban Sivalingam : CASSCF convergence, NEVPT2
   Boris Wezisla          : Elementary symmetry handling
   Frank Wennmohs         : Technical directorship


 We gratefully acknowledge several colleagues who have allowed us to
 interface, adapt or use parts of their codes:
   Stefan Grimme, W. Hujo, H. Kruse, T. Risthaus : VdW corrections, initial TS optimization,
                                                   DFT functionals, gCP
   Ed Valeev                                     : LibInt (2-el integral package), F12 methods
   Garnet Chan, S. Sharma, R. Olivares           : DMRG
   Ulf Ekstrom                                   : XCFun DFT Library
   Mihaly Kallay                                 : mrcc  (arbitrary order and MRCC methods)
   Andreas Klamt, Michael Diedenhofen            : otool_cosmo (COSMO solvation model)
   Frank Weinhold                                : gennbo (NPA and NBO analysis)
   Christopher J. Cramer and Donald G. Truhlar   : smd solvation model


 Your calculation uses the libint2 library for the computation of 2-el integrals
 For citations please refer to: http://libint.valeyev.net

 This ORCA versions uses:
   CBLAS   interface :  Fast vector & matrix operations
   LAPACKE interface :  Fast linear algebra routines
   SCALAPACK package :  Parallel linear algebra routines


Your calculation utilizes the basis: Ahlrichs-TZV
Cite in your paper:
H - Kr: A. Schaefer, H. Horn and R. Ahlrichs, J. Chem. Phys. 97, 2571 (1992).

The def2-TZV basis will be loaded
Cite in your paper:
 	F. Weigend, R. Ahlrichs, Phys. Chem. Chem. Phys. 2005, 7, 3297.

================================================================================
                                        WARNINGS
                       Please study these warnings very carefully!
================================================================================
Now building the actual basis set
WARNING: Geometry optimizations can change the point-group symmetry!

WARNING: Geometry Optimization
  ===> : Switching off AutoStart
         For restart on a previous wavefunction, please use MOREAD


INFO   : the flag for use of LIBINT has been found!

================================================================================
                                       INPUT FILE
================================================================================
NAME = 2097_+.inp
|  1> ! NORI PBE0 def2-TZVP UseSym TightOPT Freq TightSCF Grid3 FinalGrid5 XYZFile
|  2> % pal
|  3>     nprocs 8
|  4> end
|  5> %method
|  6>     SymThresh 5.0e-2
|  7> end
|  8> % geom 
|  9>     MaxIter 10
| 10> end 
| 11> % maxcore 2000
| 12> % output
| 13>     printlevel mini
| 14>     print[ P_Basis ] 0
| 15>     print[ P_SCFInfo ] 1
| 16>     print[ P_SCFIterInfo ] 1
| 17>     print[ P_OrbEn ] 0
| 18>     print[ P_Cartesian ] 0
| 19> end
| 20> % elprop
| 21>     Dipole false
| 22> end
| 23> *xyz 1 1
| 24>  C        0.1024954429     0.1716942816     0.2358379288 
| 25>  C        1.5700705170     0.4578047060     0.2806115831 
| 26>  C        2.5005799631    -0.3590605884     0.7788848552 
| 27>  C        2.1827267695    -1.6954383256     1.3740578147 
| 28>  C        3.9668507306    -0.0216066174     0.8172849272 
| 29>  C        4.5317130739     0.1754183455     2.2122169941 
| 30>  N        4.2482598521     1.2263465108     0.0167159943 
| 31>  H       -0.4426980453     0.9904847723    -0.2312273940 
| 32>  H       -0.3085909391     0.0281875886     1.2382153032 
| 33>  H       -0.1110834735    -0.7355440451    -0.3355133230 
| 34>  H        1.8495673539     1.4281811718    -0.1270437098 
| 35>  H        1.2147022444    -2.0584067570     1.0335344052 
| 36>  H        2.1451028722    -1.6468736998     2.4671371674 
| 37>  H        2.9347079341    -2.4439162695     1.1084579712 
| 38>  H        4.5279912928    -0.8088223980     0.3018810886 
| 39>  H        4.0112028446     0.9802152155     2.7374266055 
| 40>  H        5.6039456646     0.3869385971     2.1910067479 
| 41>  H        4.3946208604    -0.7385099281     2.7891853024 
| 42>  H        3.7969573805     2.0347929549     0.4505325409 
| 43>  H        3.8787788024     1.1364830180    -0.9323915054 
| 44>  H        5.2508988588     1.4115114667    -0.0316712976 
| 45> *
| 46> 
| 47>                          ****END OF INPUT****
================================================================================

The point group is C1 - hence turning off symmetry
If this is a round-off problem, please increase the symmetry
        detection tolerance (%method SymThresh)


                       *****************************
                       * Geometry Optimization Run *
                       *****************************

Geometry optimization settings:
Update method            Update   .... BFGS
Choice of coordinates    CoordSys .... Redundant Internals
Initial Hessian          InHess   .... Almoef's Model

Convergence Tolerances:
Energy Change            TolE     ....  1.0000e-06 Eh
Max. Gradient            TolMAXG  ....  1.0000e-04 Eh/bohr
RMS Gradient             TolRMSG  ....  3.0000e-05 Eh/bohr
Max. Displacement        TolMAXD  ....  1.0000e-03 bohr
RMS Displacement         TolRMSD  ....  6.0000e-04 bohr

------------------------------------------------------------------------------
                        ORCA OPTIMIZATION COORDINATE SETUP
------------------------------------------------------------------------------

The optimization will be done in new redundant internal coordinates
Making redundant internal coordinates   ...  (new redundants) done
Evaluating the initial hessian          ...  (Almloef) done
Evaluating the coordinates              ...  done
Calculating the B-matrix                .... done
Calculating the G-matrix                .... done
Diagonalizing the G-matrix              .... done
Small eigenvalue found = 1.921e-02
The first mode is                       ....   39
The number of degrees of freedom        ....   57

    -----------------------------------------------------------------
                    Redundant Internal Coordinates


    -----------------------------------------------------------------
         Definition                    Initial Value    Approx d2E/dq
    -----------------------------------------------------------------
      1. B(C   1,C   0)                  1.4959         0.423470   
      2. B(C   2,C   1)                  1.3347         0.765570   
      3. B(C   3,C   2)                  1.4971         0.421641   
      4. B(C   4,C   2)                  1.5051         0.409372   
      5. B(C   5,C   4)                  1.5178         0.390695   
      6. B(N   6,C   4)                  1.5091         0.361246   
      7. B(H   7,C   0)                  1.0889         0.361497   
      8. B(H   8,C   0)                  1.0929         0.356334   
      9. B(H   9,C   0)                  1.0932         0.355860   
     10. B(H  10,C   1)                  1.0890         0.361419   
     11. B(H  11,C   3)                  1.0885         0.362126   
     12. B(H  12,C   3)                  1.0948         0.353800   
     13. B(H  13,C   3)                  1.0937         0.355204   
     14. B(H  14,C   4)                  1.0955         0.352833   
     15. B(H  15,C   5)                  1.0929         0.356258   
     16. B(H  16,C   5)                  1.0931         0.356019   
     17. B(H  17,C   5)                  1.0895         0.360798   
     18. B(H  18,N   6)                  1.0225         0.413324   
     19. B(H  19,N   6)                  1.0224         0.413369   
     20. B(H  20,N   6)                  1.0207         0.415966   
     21. A(C   1,C   0,H   7)          111.1133         0.331304   
     22. A(H   8,C   0,H   9)          107.2713         0.289821   
     23. A(C   1,C   0,H   9)          111.4716         0.330443   
     24. A(H   7,C   0,H   8)          107.6867         0.290536   
     25. A(H   7,C   0,H   9)          107.5787         0.290475   
     26. A(C   1,C   0,H   8)          111.5124         0.330516   
     27. A(C   0,C   1,H  10)          114.2692         0.331292   
     28. A(C   2,C   1,H  10)          120.4094         0.366041   
     29. A(C   0,C   1,C   2)          125.3169         0.421016   
     30. A(C   1,C   2,C   4)          123.4696         0.418481   
     31. A(C   1,C   2,C   3)          123.1434         0.420691   
     32. A(C   3,C   2,C   4)          113.3811         0.376872   
     33. A(H  12,C   3,H  13)          107.2440         0.289413   
     34. A(H  11,C   3,H  13)          107.8956         0.290471   
     35. A(H  11,C   3,H  12)          107.2524         0.290290   
     36. A(C   2,C   3,H  12)          111.3851         0.329890   
     37. A(C   2,C   3,H  11)          111.2307         0.331162   
     38. A(C   2,C   3,H  13)          111.6149         0.330106   
     39. A(N   6,C   4,H  14)          104.4256         0.319550   
     40. A(C   2,C   4,N   6)          110.7035         0.364686   
     41. A(C   5,C   4,N   6)          108.1073         0.361788   
     42. A(C   5,C   4,H  14)          109.5740         0.325623   
     43. A(C   2,C   4,H  14)          109.0189         0.328137   
     44. A(C   2,C   4,C   5)          114.5263         0.371948   
     45. A(H  16,C   5,H  17)          107.2195         0.290408   
     46. A(H  15,C   5,H  17)          107.6558         0.290438   
     47. A(C   4,C   5,H  17)          109.3289         0.326822   
     48. A(H  15,C   5,H  16)          109.5115         0.289831   
     49. A(C   4,C   5,H  16)          111.8599         0.326105   
     50. A(C   4,C   5,H  15)          111.1002         0.326141   
     51. A(C   4,N   6,H  18)          110.2708         0.325172   
     52. A(H  19,N   6,H  20)          109.0808         0.299166   
     53. A(H  18,N   6,H  20)          108.0735         0.299161   
     54. A(C   4,N   6,H  20)          110.9969         0.325513   
     55. A(H  18,N   6,H  19)          107.6883         0.298863   
     56. A(C   4,N   6,H  19)          110.6321         0.325178   
     57. D(H  10,C   1,C   0,H   7)      1.5354         0.013254   
     58. D(H  10,C   1,C   0,H   8)   -118.6141         0.013254   
     59. D(C   2,C   1,C   0,H   7)   -179.2392         0.013254   
     60. D(C   2,C   1,C   0,H   8)     60.6113         0.013254   
     61. D(C   2,C   1,C   0,H   9)    -59.2541         0.013254   
     62. D(H  10,C   1,C   0,H   9)    121.5205         0.013254   
     63. D(C   3,C   2,C   1,C   0)     -0.2058         0.041967   
     64. D(C   4,C   2,C   1,H  10)     -0.0820         0.041967   
     65. D(C   4,C   2,C   1,C   0)   -179.2632         0.041967   
     66. D(C   3,C   2,C   1,H  10)    178.9754         0.041967   
     67. D(H  13,C   3,C   2,C   1)    141.1358         0.013143   
     68. D(H  12,C   3,C   2,C   1)    -99.0227         0.013143   
     69. D(H  11,C   3,C   2,C   4)   -160.2865         0.013143   
     70. D(H  12,C   3,C   2,C   4)     80.1206         0.013143   
     71. D(H  11,C   3,C   2,C   1)     20.5702         0.013143   
     72. D(H  13,C   3,C   2,C   4)    -39.7209         0.013143   
     73. D(H  14,C   4,C   2,C   3)     56.8149         0.012413   
     74. D(H  14,C   4,C   2,C   1)   -124.0450         0.012413   
     75. D(N   6,C   4,C   2,C   3)    171.1436         0.012413   
     76. D(N   6,C   4,C   2,C   1)     -9.7163         0.012413   
     77. D(C   5,C   4,C   2,C   3)    -66.3324         0.012413   
     78. D(C   5,C   4,C   2,C   1)    112.8077         0.012413   
     79. D(H  17,C   5,C   4,N   6)   -176.4896         0.012133   
     80. D(H  17,C   5,C   4,C   2)     59.5899         0.012133   
     81. D(H  16,C   5,C   4,H  14)     55.3451         0.012133   
     82. D(H  16,C   5,C   4,N   6)    -57.8865         0.012133   
     83. D(H  16,C   5,C   4,C   2)    178.1930         0.012133   
     84. D(H  15,C   5,C   4,H  14)    178.0655         0.012133   
     85. D(H  15,C   5,C   4,N   6)     64.8340         0.012133   
     86. D(H  17,C   5,C   4,H  14)    -63.2581         0.012133   
     87. D(H  15,C   5,C   4,C   2)    -59.0865         0.012133   
     88. D(H  20,N   6,C   4,H  14)    -57.6106         0.011993   
     89. D(H  20,N   6,C   4,C   2)   -174.8001         0.011993   
     90. D(H  19,N   6,C   4,H  14)     63.6315         0.011993   
     91. D(H  19,N   6,C   4,C   5)   -179.7487         0.011993   
     92. D(H  19,N   6,C   4,C   2)    -53.5580         0.011993   
     93. D(H  18,N   6,C   4,H  14)   -177.3458         0.011993   
     94. D(H  20,N   6,C   4,C   5)     59.0092         0.011993   
     95. D(H  18,N   6,C   4,C   5)    -60.7260         0.011993   
     96. D(H  18,N   6,C   4,C   2)     65.4647         0.011993   
    -----------------------------------------------------------------

Number of atoms                         .... 21
Number of degrees of freedom            .... 96

         *************************************************************
         *                GEOMETRY OPTIMIZATION CYCLE   1            *
         *************************************************************


           ************************************************************
           *        Program running with 8 parallel MPI-processes     *
           *              working on a common directory               *
           ************************************************************
           ************************************************************
           *              Shut down parallel processing               *
           ************************************************************


           ************************************************************
           *        Program running with 8 parallel MPI-processes     *
           *              working on a common directory               *
           ************************************************************
------------
SCF SETTINGS
------------
Hamiltonian:
 Density Functional     Method          .... DFT(GTOs)
 Exchange Functional    Exchange        .... PBE
   PBE kappa parameter  XKappa          ....  0.804000
 Correlation Functional Correlation     .... PBE
 LDA part of GGA corr.  LDAOpt          .... PW91-LDA
 Gradients option       PostSCFGGA      .... off
 Hybrid DFT is turned on
   Fraction HF Exchange ScalHFX         ....  0.250000
   Scaling of DF-GGA-X  ScalDFX         ....  0.750000
   Scaling of DF-GGA-C  ScalDFC         ....  1.000000
   Scaling of DF-LDA-C  ScalLDAC        ....  1.000000
   Perturbative correction              ....  0.000000
   NL short-range parameter             ....  6.900000


General Settings:
 Integral files         IntName         .... 2097_+
 Hartree-Fock type      HFTyp           .... RHF
 Total Charge           Charge          ....    1
 Multiplicity           Mult            ....    1
 Number of Electrons    NEL             ....   56
 Basis Dimension        Dim             ....  301
 Nuclear Repulsion      ENuc            ....    326.9566096908 Eh

Convergence Acceleration:
 DIIS                   CNVDIIS         .... on
   Start iteration      DIISMaxIt       ....    12
   Startup error        DIISStart       ....  0.200000
   # of expansion vecs  DIISMaxEq       ....     5
   Bias factor          DIISBfac        ....   1.050
   Max. coefficient     DIISMaxC        ....  10.000
 Newton-Raphson         CNVNR           .... off
 SOSCF                  CNVSOSCF        .... on
   Start iteration      SOSCFMaxIt      ....   150
   Startup grad/error   SOSCFStart      ....  0.003300
 Level Shifting         CNVShift        .... on
   Level shift para.    LevelShift      ....    0.2500
   Turn off err/grad.   ShiftErr        ....    0.0010
 Zerner damping         CNVZerner       .... off
 Static damping         CNVDamp         .... on
   Fraction old density DampFac         ....    0.7000
   Max. Damping (<1)    DampMax         ....    0.9800
   Min. Damping (>=0)   DampMin         ....    0.0000
   Turn off err/grad.   DampErr         ....    0.1000
 Fernandez-Rico         CNVRico         .... off

SCF Procedure:
 Maximum # iterations   MaxIter         ....   125
 SCF integral mode      SCFMode         .... Direct
   Integral package                     .... LIBINT
 Reset frequeny         DirectResetFreq ....    20
 Integral Threshold     Thresh          ....  2.500e-11 Eh
 Primitive CutOff       TCut            ....  2.500e-12 Eh

Convergence Tolerance:
 Convergence Check Mode ConvCheckMode   .... Total+1el-Energy
 Energy Change          TolE            ....  1.000e-08 Eh
 1-El. energy change                    ....  1.000e-05 Eh
 Orbital Gradient       TolG            ....  1.000e-05
 Orbital Rotation angle TolX            ....  1.000e-05
 DIIS Error             TolErr          ....  5.000e-07


Diagonalization of the overlap matrix:
Smallest eigenvalue                        ... 8.636e-05
Time for diagonalization                   ...    0.261 sec
Threshold for overlap eigenvalues          ... 1.000e-08
Number of eigenvalues below threshold      ... 0
Time for construction of square roots      ...    0.028 sec
Total time needed                          ...    0.289 sec

-------------------
DFT GRID GENERATION
-------------------

General Integration Accuracy     IntAcc      ...  4.340
Radial Grid Type                 RadialGrid  ... Gauss-Chebyshev
Angular Grid (max. acc.)         AngularGrid ... Lebedev-194
Angular grid pruning method      GridPruning ... 3 (G Style)
Weight generation scheme         WeightScheme... Becke
Basis function cutoff            BFCut       ...    1.0000e-11
Integration weight cutoff        WCut        ...    1.0000e-14
Grids for H and He will be reduced by one unit

# of grid points (after initial pruning)     ...  44398 (   0.0 sec)
# of grid points (after weights+screening)   ...  40182 (   0.2 sec)
nearest neighbour list constructed           ...    0.0 sec
Grid point re-assignment to atoms done       ...    0.0 sec
Grid point division into batches done        ...    0.1 sec
Reduced shell lists constructed in    0.3 sec

Total number of grid points                  ...    40182
Total number of batches                      ...      638
Average number of points per batch           ...       62
Average number of grid points per atom       ...     1913
Average number of shells per batch           ...   105.04 (78.98%)
Average number of basis functions per batch  ...   247.70 (82.29%)
Average number of large shells per batch     ...    84.58 (80.52%)
Average number of large basis fcns per batch ...   198.48 (80.13%)
Maximum spatial batch extension              ...   2.71,  4.44,  3.07 au
Average spatial batch extension              ...   0.16,  0.18,  0.17 au

Time for grid setup =    0.756 sec

Loading Hartree-Fock densities                     ... done
Calculating cut-offs                               ... done
Setting up the integral package                    ... done
Initializing the effective Hamiltonian             ... done
Starting the Coulomb interaction                   ... done (   0.0 sec)
Reading the grid                                   ... done
Mapping shells                                     ... done
Starting the XC term evaluation                    ... done (   0.5 sec)
  promolecular density results
     # of electrons  =     56.994201535
     EX              =    -41.402868307
     EC              =     -1.857593675
     EX+EC           =    -43.260461982
Transforming the Hamiltonian                       ... done (   0.0 sec)
Diagonalizing the Hamiltonian                      ... done (   0.3 sec)
Back transforming the eigenvectors                 ... done (   0.0 sec)
Now organizing SCF variables                       ... done
--------------
SCF ITERATIONS
--------------
ITER       Energy         Delta-E        Max-DP      RMS-DP      [F,P]     Damp
               ***  Starting incremental Fock matrix formation  ***
  0   -291.1018180077   0.000000000000 0.06212682  0.00104362  0.1800347 0.7000
  1   -291.1983308362  -0.096512828484 0.06765864  0.00089544  0.0954282 0.7000
                               ***Turning on DIIS***
  2   -291.2408923331  -0.042561496833 0.14612533  0.00181086  0.0373438 0.0000
  3   -291.3011633921  -0.060271059089 0.03180332  0.00050801  0.0520217 0.0000
  4   -291.3171359706  -0.015972578479 0.01651058  0.00019240  0.0080239 0.0000
                      *** Initiating the SOSCF procedure ***
                           *** Shutting down DIIS ***
                      *** Re-Reading the Fockian *** 
                      *** Removing any level shift *** 
ITER      Energy       Delta-E        Grad      Rot      Max-DP    RMS-DP
  5   -291.31770054  -0.0005645707  0.000498  0.000498  0.004753  0.000074
               *** Restarting incremental Fock matrix formation ***
  6   -291.31773471  -0.0000341703  0.000185  0.000622  0.002042  0.000046
  7   -291.31773578  -0.0000010726  0.000316  0.000559  0.000312  0.000010
  8   -291.31773859  -0.0000028046  0.000131  0.000346  0.000257  0.000006
  9   -291.31773852   0.0000000695  0.000123  0.000169  0.000110  0.000002
 10   -291.31773877  -0.0000002551  0.000006  0.000009  0.000045  0.000001
 11   -291.31773878  -0.0000000008  0.000007  0.000005  0.000009  0.000000
                  ***Gradient check signals convergence***
              ***Rediagonalizing the Fockian in SOSCF/NRSCF***

               *****************************************************
               *                     SUCCESS                       *
               *           SCF CONVERGED AFTER  12 CYCLES          *
               *****************************************************

Setting up the final grid:

General Integration Accuracy     IntAcc      ...  5.010
Radial Grid Type                 RadialGrid  ... Gauss-Chebyshev
Angular Grid (max. acc.)         AngularGrid ... Lebedev-434
Angular grid pruning method      GridPruning ... 3 (G Style)
Weight generation scheme         WeightScheme... Becke
Basis function cutoff            BFCut       ...    1.0000e-11
Integration weight cutoff        WCut        ...    1.0000e-14
Grids for H and He will be reduced by one unit

# of grid points (after initial pruning)     ... 168466 (   0.0 sec)
# of grid points (after weights+screening)   ... 150699 (   0.3 sec)
nearest neighbour list constructed           ...    0.0 sec
Grid point re-assignment to atoms done       ...    0.0 sec
Grid point division into batches done        ...    1.2 sec
Reduced shell lists constructed in    1.6 sec

Total number of grid points                  ...   150699
Total number of batches                      ...     2362
Average number of points per batch           ...       63
Average number of grid points per atom       ...     7176
Average number of shells per batch           ...   103.78 (78.03%)
Average number of basis functions per batch  ...   245.11 (81.43%)
Average number of large shells per batch     ...    82.82 (79.81%)
Average number of large basis fcns per batch ...   194.62 (79.40%)
Maximum spatial batch extension              ...   2.18,  3.60,  3.04 au
Average spatial batch extension              ...   0.11,  0.12,  0.11 au

Final grid set up in    2.3 sec
Final integration                            ... done (   1.1 sec)
Change in XC energy                          ...     0.000503029
Integrated number of electrons               ...    56.000010645
Previous integrated no of electrons          ...    56.000734372
Total Energy       :         -291.31723575 Eh           -7927.14499 eV
  Last Energy change         ...   -2.4814e-09  Tolerance :   1.0000e-08
  Last MAX-Density change    ...    6.3184e-06  Tolerance :   1.0000e-07
             **** THE GBW FILE WAS UPDATED (2097_+.gbw) ****
             **** DENSITY FILE WAS UPDATED (2097_+.scfp.tmp) ****
             **** ENERGY FILE WAS UPDATED (2097_+.en.tmp) ****
Total SCF time: 0 days 0 hours 1 min 46 sec 
           ************************************************************
           *              Shut down parallel processing               *
           ************************************************************

-------------------------   --------------------
FINAL SINGLE POINT ENERGY      -291.317235748605
-------------------------   --------------------



           ************************************************************
           *        Program running with 8 parallel MPI-processes     *
           *              working on a common directory               *
           ************************************************************
------------------------------------------------------------------------------
                         ORCA SCF GRADIENT CALCULATION
------------------------------------------------------------------------------

Gradient of the Kohn-Sham DFT energy:
Kohn-Sham wavefunction type      ... RKS
Hartree-Fock exchange scaling    ...    0.250
Number of operators              ...    1
Number of atoms                  ...   21
Basis set dimensions             ...  301
Integral neglect threshold       ... 2.5e-11
Integral primitive cutoff        ... 2.5e-12

Nuclear repulsion gradient       ... done
One Electron Gradient            ... done
Pre-screening matrix             ... done
Starting the two electron gradient:
Two electron gradient done
Exchange-correlation gradient    ... done

------------------
CARTESIAN GRADIENT
------------------

   1   C   :    0.000001721   -0.000071869    0.000058446
   2   C   :    0.000150863   -0.000066092    0.000109102
   3   C   :    0.000027929   -0.000171932   -0.000192902
   4   C   :    0.000103381   -0.000068532    0.000137029
   5   C   :    0.000017695    0.000144175    0.000012901
   6   C   :   -0.000038354    0.000188791    0.000016620
   7   N   :    0.000066514   -0.000089340   -0.000003301
   8   H   :    0.000027715    0.000046014   -0.000041305
   9   H   :   -0.000020410    0.000028478   -0.000042569
  10   H   :   -0.000005446    0.000028386    0.000055689
  11   H   :   -0.000107612   -0.000005082   -0.000079635
  12   H   :   -0.000055702    0.000060410    0.000040089
  13   H   :   -0.000072338    0.000156776   -0.000086300
  14   H   :    0.000030358   -0.000061393    0.000000191
  15   H   :   -0.000009012   -0.000014430    0.000001096
  16   H   :   -0.000020352   -0.000110886    0.000005952
  17   H   :   -0.000002866   -0.000081691    0.000057869
  18   H   :   -0.000055585    0.000007256   -0.000050245
  19   H   :   -0.000011148   -0.000022715   -0.000014996
  20   H   :   -0.000024298    0.000024248   -0.000019321
  21   H   :   -0.000003052    0.000079431    0.000035590

Norm of the cartesian gradient     ...    0.000582203
RMS gradient                       ...    0.000073351
MAX gradient                       ...    0.000192902

-------
TIMINGS
-------

Total SCF gradient time            ...       42.038 sec

One electron gradient       ....       0.231 sec  (  0.5%)
Prescreening matrices       ....       0.575 sec  (  1.4%)
Two electron gradient       ....      34.311 sec  ( 81.6%)
XC gradient                 ....       4.600 sec  ( 10.9%)
           ************************************************************
           *              Shut down parallel processing               *
           ************************************************************
------------------------------------------------------------------------------
                         ORCA GEOMETRY RELAXATION STEP
------------------------------------------------------------------------------

Reading the OPT-File                    .... done
Getting information on internals        .... done
Copying old internal coords+grads       .... done
Making the new internal coordinates     .... (new redundants).... done
Validating the new internal coordinates .... (new redundants).... done
Calculating the B-matrix                .... done
Calculating the G,G- and P matrices     .... done
Transforming gradient to internals      .... done
Projecting the internal gradient        .... done
Number of atoms                         ....  21
Number of internal coordinates          ....  96
Current Energy                          ....  -291.317235749 Eh
Current gradient norm                   ....     0.000582203 Eh/bohr
Maximum allowed component of the step   ....  0.300
Current trust radius                    ....  0.300
Evaluating the initial hessian          ....  (Almloef) done
Projecting the Hessian                  .... done
Forming the augmented Hessian           .... done
Diagonalizing the augmented Hessian     .... done
Last element of RFO vector              ....  0.999964363
Lowest eigenvalues of augmented Hessian:
 -0.000001838  0.011993210  0.012133484  0.012413426  0.013143247
Length of the computed step             ....  0.008442674
The final length of the internal step   ....  0.008442674
Converting the step to cartesian space:
 Initial RMS(Int)=    0.0008616768
Transforming coordinates:
 Iter   0:  RMS(Cart)=    0.0015510252 RMS(Int)=    0.0008616650
 Iter   1:  RMS(Cart)=    0.0000014259 RMS(Int)=    0.0000010115
 Iter   2:  RMS(Cart)=    0.0000000026 RMS(Int)=    0.0000000016
done
Storing new coordinates                 .... done

                                .--------------------.
          ----------------------|Geometry convergence|---------------------
          Item                value                 Tolerance   Converged
          -----------------------------------------------------------------
          RMS gradient        0.00005286            0.00003000      NO
          MAX gradient        0.00019187            0.00010000      NO
          RMS step            0.00086168            0.00060000      NO
          MAX step            0.00253950            0.00100000      NO
          ....................................................
          Max(Bonds)      0.0003      Max(Angles)    0.04
          Max(Dihed)        0.15      Max(Improp)    0.00
          -----------------------------------------------------------------

The optimization has not yet converged - more geometry cycles are needed


    ---------------------------------------------------------------------------
                         Redundant Internal Coordinates
                            (Angstroem and degrees)

        Definition                    Value    dE/dq     Step     New-Value
    ----------------------------------------------------------------------------
     1. B(C   1,C   0)                1.4959 -0.000024  0.0000    1.4959   
     2. B(C   2,C   1)                1.3347  0.000041 -0.0000    1.3347   
     3. B(C   3,C   2)                1.4971 -0.000100  0.0001    1.4972   
     4. B(C   4,C   2)                1.5051  0.000087 -0.0001    1.5050   
     5. B(C   5,C   4)                1.5178  0.000083 -0.0001    1.5177   
     6. B(N   6,C   4)                1.5091  0.000011 -0.0000    1.5091   
     7. B(H   7,C   0)                1.0889  0.000027 -0.0000    1.0889   
     8. B(H   8,C   0)                1.0929  0.000054 -0.0001    1.0928   
     9. B(H   9,C   0)                1.0932 -0.000050  0.0001    1.0933   
    10. B(H  10,C   1)                1.0890 -0.000118  0.0002    1.0892   
    11. B(H  11,C   3)                1.0885 -0.000083  0.0001    1.0886   
    12. B(H  12,C   3)                1.0948  0.000192 -0.0003    1.0945   
    13. B(H  13,C   3)                1.0937  0.000022 -0.0000    1.0937   
    14. B(H  14,C   4)                1.0955  0.000017 -0.0000    1.0955   
    15. B(H  15,C   5)                1.0929 -0.000109  0.0002    1.0931   
    16. B(H  16,C   5)                1.0931  0.000050 -0.0001    1.0930   
    17. B(H  17,C   5)                1.0895  0.000073 -0.0001    1.0894   
    18. B(H  18,N   6)                1.0225 -0.000026  0.0000    1.0225   
    19. B(H  19,N   6)                1.0224 -0.000035  0.0000    1.0225   
    20. B(H  20,N   6)                1.0207  0.000028 -0.0000    1.0207   
    21. A(C   1,C   0,H   7)          111.11  0.000068   -0.01    111.10   
    22. A(H   8,C   0,H   9)          107.27  0.000020   -0.00    107.27   
    23. A(C   1,C   0,H   9)          111.47 -0.000054    0.01    111.48   
    24. A(H   7,C   0,H   8)          107.69 -0.000034    0.01    107.69   
    25. A(H   7,C   0,H   9)          107.58  0.000004   -0.00    107.58   
    26. A(C   1,C   0,H   8)          111.51 -0.000004    0.00    111.51   
    27. A(C   0,C   1,H  10)          114.27  0.000042   -0.01    114.26   
    28. A(C   2,C   1,H  10)          120.41 -0.000071    0.01    120.42   
    29. A(C   0,C   1,C   2)          125.32  0.000029   -0.00    125.31   
    30. A(C   1,C   2,C   4)          123.47 -0.000136    0.02    123.49   
    31. A(C   1,C   2,C   3)          123.14  0.000102   -0.01    123.13   
    32. A(C   3,C   2,C   4)          113.38  0.000034   -0.00    113.38   
    33. A(H  12,C   3,H  13)          107.24  0.000036   -0.01    107.23   
    34. A(H  11,C   3,H  13)          107.90 -0.000010    0.00    107.90   
    35. A(H  11,C   3,H  12)          107.25 -0.000026    0.01    107.26   
    36. A(C   2,C   3,H  12)          111.39  0.000000   -0.00    111.38   
    37. A(C   2,C   3,H  11)          111.23  0.000002    0.00    111.23   
    38. A(C   2,C   3,H  13)          111.61 -0.000002   -0.00    111.61   
    39. A(N   6,C   4,H  14)          104.43  0.000042    0.00    104.43   
    40. A(C   2,C   4,N   6)          110.70 -0.000107    0.02    110.73   
    41. A(C   5,C   4,N   6)          108.11 -0.000010    0.00    108.11   
    42. A(C   5,C   4,H  14)          109.57 -0.000059    0.01    109.59   
    43. A(C   2,C   4,H  14)          109.02 -0.000014    0.00    109.02   
    44. A(C   2,C   4,C   5)          114.53  0.000139   -0.04    114.49   
    45. A(H  16,C   5,H  17)          107.22  0.000022   -0.00    107.22   
    46. A(H  15,C   5,H  17)          107.66  0.000000   -0.00    107.65   
    47. A(C   4,C   5,H  17)          109.33  0.000056   -0.01    109.32   
    48. A(H  15,C   5,H  16)          109.51  0.000070   -0.01    109.50   
    49. A(C   4,C   5,H  16)          111.86 -0.000120    0.02    111.88   
    50. A(C   4,C   5,H  15)          111.10 -0.000022    0.00    111.10   
    51. A(C   4,N   6,H  18)          110.27 -0.000032    0.01    110.28   
    52. A(H  19,N   6,H  20)          109.08  0.000015   -0.01    109.07   
    53. A(H  18,N   6,H  20)          108.07 -0.000025    0.01    108.08   
    54. A(C   4,N   6,H  20)          111.00  0.000047   -0.01    110.99   
    55. A(H  18,N   6,H  19)          107.69  0.000011    0.00    107.69   
    56. A(C   4,N   6,H  19)          110.63 -0.000017    0.00    110.63   
    57. D(H  10,C   1,C   0,H   7)      1.54 -0.000015    0.08      1.61   
    58. D(H  10,C   1,C   0,H   8)   -118.61 -0.000015    0.07   -118.54   
    59. D(C   2,C   1,C   0,H   7)   -179.24 -0.000042    0.14   -179.10   
    60. D(C   2,C   1,C   0,H   8)     60.61 -0.000042    0.13     60.75   
    61. D(C   2,C   1,C   0,H   9)    -59.25 -0.000028    0.13    -59.12   
    62. D(H  10,C   1,C   0,H   9)    121.52 -0.000001    0.07    121.59   
    63. D(C   3,C   2,C   1,C   0)     -0.21 -0.000028    0.05     -0.16   
    64. D(C   4,C   2,C   1,H  10)     -0.08 -0.000029    0.03     -0.05   
    65. D(C   4,C   2,C   1,C   0)   -179.26 -0.000001   -0.03   -179.29   
    66. D(C   3,C   2,C   1,H  10)    178.98 -0.000056    0.11    179.08   
    67. D(H  13,C   3,C   2,C   1)    141.14 -0.000029    0.08    141.21   
    68. D(H  12,C   3,C   2,C   1)    -99.02  0.000015    0.06    -98.97   
    69. D(H  11,C   3,C   2,C   4)   -160.29 -0.000043    0.14   -160.15   
    70. D(H  12,C   3,C   2,C   4)     80.12 -0.000011    0.13     80.25   
    71. D(H  11,C   3,C   2,C   1)     20.57 -0.000016    0.07     20.64   
    72. D(H  13,C   3,C   2,C   4)    -39.72 -0.000056    0.15    -39.58   
    73. D(H  14,C   4,C   2,C   3)     56.81  0.000029   -0.08     56.74   
    74. D(H  14,C   4,C   2,C   1)   -124.05  0.000005   -0.01   -124.05   
    75. D(N   6,C   4,C   2,C   3)    171.14  0.000013   -0.06    171.08   
    76. D(N   6,C   4,C   2,C   1)     -9.72 -0.000012    0.01     -9.71   
    77. D(C   5,C   4,C   2,C   3)    -66.33  0.000019   -0.07    -66.41   
    78. D(C   5,C   4,C   2,C   1)    112.81 -0.000006   -0.00    112.80   
    79. D(H  17,C   5,C   4,N   6)   -176.49 -0.000015    0.02   -176.47   
    80. D(H  17,C   5,C   4,C   2)     59.59  0.000035    0.01     59.60   
    81. D(H  16,C   5,C   4,H  14)     55.35 -0.000012    0.03     55.37   
    82. D(H  16,C   5,C   4,N   6)    -57.89 -0.000026    0.02    -57.87   
    83. D(H  16,C   5,C   4,C   2)    178.19  0.000024    0.02    178.21   
    84. D(H  15,C   5,C   4,H  14)    178.07 -0.000023    0.03    178.10   
    85. D(H  15,C   5,C   4,N   6)     64.83 -0.000037    0.03     64.86   
    86. D(H  17,C   5,C   4,H  14)    -63.26 -0.000001    0.02    -63.23   
    87. D(H  15,C   5,C   4,C   2)    -59.09  0.000013    0.02    -59.06   
    88. D(H  20,N   6,C   4,H  14)    -57.61 -0.000033    0.08    -57.53   
    89. D(H  20,N   6,C   4,C   2)   -174.80  0.000012    0.07   -174.73   
    90. D(H  19,N   6,C   4,H  14)     63.63  0.000006    0.06     63.69   
    91. D(H  19,N   6,C   4,C   5)   -179.75 -0.000046    0.08   -179.67   
    92. D(H  19,N   6,C   4,C   2)    -53.56  0.000051    0.05    -53.51   
    93. D(H  18,N   6,C   4,H  14)   -177.35 -0.000012    0.07   -177.27   
    94. D(H  20,N   6,C   4,C   5)     59.01 -0.000085    0.10     59.11   
    95. D(H  18,N   6,C   4,C   5)    -60.73 -0.000064    0.09    -60.64   
    96. D(H  18,N   6,C   4,C   2)     65.46  0.000033    0.06     65.52   
    ----------------------------------------------------------------------------

         *************************************************************
         *                GEOMETRY OPTIMIZATION CYCLE   2            *
         *************************************************************
---------------------------------
CARTESIAN COORDINATES (ANGSTROEM)
---------------------------------
  C      2.212988    0.000622   -1.595675
  C      1.321366    0.036000   -0.395055
  C      0.014902   -0.236892   -0.396000
  C     -0.740371   -0.618744   -1.631028
  C     -0.847531   -0.173632    0.835735
  C     -1.888814    0.930369    0.818622
  N     -0.000362   -0.000211    2.072534
  H      3.239467    0.247572   -1.329078
  H      1.887290    0.712784   -2.357854
  H      2.221354   -0.989561   -2.059108
  H      1.823960    0.323929    0.527336
  H     -0.069986   -0.990248   -2.404078
  H     -1.277605    0.237401   -2.050985
  H     -1.480930   -1.396981   -1.425883
  H     -1.340844   -1.141642    0.976343
  H     -1.419869    1.912077    0.712943
  H     -2.510607    0.917886    1.717470
  H     -2.551631    0.787409   -0.033995
  H      0.470889    0.907059    2.054981
  H      0.720450   -0.723864    2.119907
  H     -0.572575   -0.043723    2.916641

----------------------------
CARTESIAN COORDINATES (A.U.)
----------------------------
  NO LB      ZA    FRAG    MASS        X           Y           Z
   0 C     6.0000    0    12.011          4.181941578850106          0.001174588525393         -3.015389510617761
   1 C     6.0000    0    12.011          2.497020097000341          0.068029417593545         -0.746545206394314
   2 C     6.0000    0    12.011          0.028161461721739         -0.447660183689231         -0.748331148595843
   3 C     6.0000    0    12.011         -1.399098063086222         -1.169256201758069         -3.082196195281863
   4 C     6.0000    0    12.011         -1.601600814620376         -0.328117257224085          1.579309688917740
   5 C     6.0000    0    12.011         -3.569341178419720          1.758142231991159          1.546970947783667
   6 N     7.0000    0    14.007         -0.000684545616730         -0.000398570150117          3.916521570502896
   7 H     1.0000    0     1.008          6.121704566270925          0.467843509521166         -2.511594170316987
   8 H     1.0000    0     1.008          3.566460406504504          1.346967466352816         -4.455699174231018
   9 H     1.0000    0     1.008          4.197751410944541         -1.869999430374887         -3.891150983813799
  10 H     1.0000    0     1.008          3.446785024026654          0.612137119852066          0.996519678610872
  11 H     1.0000    0     1.008         -0.132254008877672         -1.871297926218173         -4.543048322936821
  12 H     1.0000    0     1.008         -2.414323762485715          0.448622964369374         -3.875799478549536
  13 H     1.0000    0     1.008         -2.798552548144312         -2.639911681748747         -2.694528918889207
  14 H     1.0000    0     1.008         -2.533827080614757         -2.157391278209342          1.845019969491159
  15 H     1.0000    0     1.008         -2.683163484795481          3.613301216175091          1.347267479572664
  16 H     1.0000    0     1.008         -4.744360080891933          1.734552998428604          3.245548142853441
  17 H     1.0000    0     1.008         -4.821883642062382          1.487986640328838         -0.064241629328211
  18 H     1.0000    0     1.008          0.889852119378524          1.714093352914199          3.883351749824675
  19 H     1.0000    0     1.008          1.361454041198834         -1.367904429168658          4.006044298141740
  20 H     1.0000    0     1.008         -1.082010373627737         -0.082625362182695          5.511653571405215

--------------------------------
INTERNAL COORDINATES (ANGSTROEM)
--------------------------------
 C      0   0   0   0.000000     0.000     0.000
 C      1   0   0   1.495905     0.000     0.000
 C      2   1   0   1.334660   125.313     0.000
 C      3   2   1   1.497178   123.130   359.839
 C      3   2   1   1.504979   123.489   180.706
 C      5   3   2   1.517690   114.489   112.804
 N      5   3   2   1.509119   110.725   350.290
 H      1   2   3   1.088906   111.101   180.897
 H      1   2   3   1.092782   111.514    60.746
 H      1   2   3   1.093299   111.481   300.876
 H      2   1   3   1.089178   114.262   180.714
 H      4   3   2   1.088594   111.234    20.640
 H      4   3   2   1.094517   111.384   261.034
 H      4   3   2   1.093694   111.613   141.212
 H      5   3   2   1.095524   109.023   235.946
 H      6   5   3   1.093082   111.103   300.937
 H      6   5   3   1.093028   111.884   178.212
 H      6   5   3   1.089367   109.318    59.603
 H      7   5   3   1.022509   110.281    65.521
 H      7   5   3   1.022491   110.633   306.489
 H      7   5   3   1.020705   110.987   185.267

---------------------------
INTERNAL COORDINATES (A.U.)
---------------------------
 C      0   0   0   0.000000     0.000     0.000
 C      1   0   0   2.826851     0.000     0.000
 C      2   1   0   2.522142   125.313     0.000
 C      3   2   1   2.829257   123.130   359.839
 C      3   2   1   2.843998   123.489   180.706
 C      5   3   2   2.868018   114.489   112.804
 N      5   3   2   2.851823   110.725   350.290
 H      1   2   3   2.057734   111.101   180.897
 H      1   2   3   2.065059   111.514    60.746
 H      1   2   3   2.066035   111.481   300.876
 H      2   1   3   2.058247   114.262   180.714
 H      4   3   2   2.057145   111.234    20.640
 H      4   3   2   2.068338   111.384   261.034
 H      4   3   2   2.066782   111.613   141.212
 H      5   3   2   2.070239   109.023   235.946
 H      6   5   3   2.065625   111.103   300.937
 H      6   5   3   2.065524   111.884   178.212
 H      6   5   3   2.058605   109.318    59.603
 H      7   5   3   1.932262   110.281    65.521
 H      7   5   3   1.932229   110.633   306.489
 H      7   5   3   1.928853   110.987   185.267



           ************************************************************
           *        Program running with 8 parallel MPI-processes     *
           *              working on a common directory               *
           ************************************************************
           ************************************************************
           *              Shut down parallel processing               *
           ************************************************************


           ************************************************************
           *        Program running with 8 parallel MPI-processes     *
           *              working on a common directory               *
           ************************************************************

Diagonalization of the overlap matrix:
Smallest eigenvalue                        ... 8.634e-05
Time for diagonalization                   ...    0.490 sec
Threshold for overlap eigenvalues          ... 1.000e-08
Number of eigenvalues below threshold      ... 0
Time for construction of square roots      ...    0.065 sec
Total time needed                          ...    0.556 sec

-------------------
DFT GRID GENERATION
-------------------

General Integration Accuracy     IntAcc      ...  4.340
Radial Grid Type                 RadialGrid  ... Gauss-Chebyshev
Angular Grid (max. acc.)         AngularGrid ... Lebedev-194
Angular grid pruning method      GridPruning ... 3 (G Style)
Weight generation scheme         WeightScheme... Becke
Basis function cutoff            BFCut       ...    1.0000e-11
Integration weight cutoff        WCut        ...    1.0000e-14
Grids for H and He will be reduced by one unit

# of grid points (after initial pruning)     ...  44398 (   0.0 sec)
# of grid points (after weights+screening)   ...  40181 (   0.2 sec)
nearest neighbour list constructed           ...    0.0 sec
Grid point re-assignment to atoms done       ...    0.0 sec
Grid point division into batches done        ...    0.1 sec
Reduced shell lists constructed in    0.2 sec

Total number of grid points                  ...    40181
Total number of batches                      ...      638
Average number of points per batch           ...       62
Average number of grid points per atom       ...     1913
Average number of shells per batch           ...   104.93 (78.89%)
Average number of basis functions per batch  ...   247.37 (82.18%)
Average number of large shells per batch     ...    84.57 (80.60%)
Average number of large basis fcns per batch ...   198.54 (80.26%)
Maximum spatial batch extension              ...   2.71,  4.44,  3.07 au
Average spatial batch extension              ...   0.16,  0.18,  0.17 au

Time for grid setup =    0.717 sec

--------------
SCF ITERATIONS
--------------
ITER       Energy         Delta-E        Max-DP      RMS-DP      [F,P]     Damp
               ***  Starting incremental Fock matrix formation  ***
                      *** Initiating the SOSCF procedure ***
                      *** Re-Reading the Fockian *** 
                      *** Removing any level shift *** 
ITER      Energy       Delta-E        Grad      Rot      Max-DP    RMS-DP
  0   -291.31773818 -291.3177381845  0.000124  0.000124  0.000331  0.000008
               *** Restarting incremental Fock matrix formation ***
  1   -291.31774042  -0.0000022314  0.000040  0.000108  0.000136  0.000003
  2   -291.31774063  -0.0000002148  0.000028  0.000108  0.000056  0.000001
  3   -291.31774062   0.0000000131  0.000051  0.000070  0.000036  0.000001
                  ***Gradient check signals convergence***
              ***Rediagonalizing the Fockian in SOSCF/NRSCF***

               *****************************************************
               *                     SUCCESS                       *
               *           SCF CONVERGED AFTER   4 CYCLES          *
               *****************************************************

Setting up the final grid:

General Integration Accuracy     IntAcc      ...  5.010
Radial Grid Type                 RadialGrid  ... Gauss-Chebyshev
Angular Grid (max. acc.)         AngularGrid ... Lebedev-434
Angular grid pruning method      GridPruning ... 3 (G Style)
Weight generation scheme         WeightScheme... Becke
Basis function cutoff            BFCut       ...    1.0000e-11
Integration weight cutoff        WCut        ...    1.0000e-14
Grids for H and He will be reduced by one unit

# of grid points (after initial pruning)     ... 168466 (   0.0 sec)
# of grid points (after weights+screening)   ... 150696 (   0.7 sec)
nearest neighbour list constructed           ...    0.0 sec
Grid point re-assignment to atoms done       ...    0.1 sec
Grid point division into batches done        ...    1.2 sec
Reduced shell lists constructed in    1.6 sec

Total number of grid points                  ...   150696
Total number of batches                      ...     2363
Average number of points per batch           ...       63
Average number of grid points per atom       ...     7176
Average number of shells per batch           ...   103.73 (77.99%)
Average number of basis functions per batch  ...   245.02 (81.40%)
Average number of large shells per batch     ...    82.78 (79.81%)
Average number of large basis fcns per batch ...   194.49 (79.38%)
Maximum spatial batch extension              ...   2.18,  3.60,  3.04 au
Average spatial batch extension              ...   0.11,  0.11,  0.11 au

Final grid set up in    3.0 sec
Final integration                            ... done (   1.2 sec)
Change in XC energy                          ...     0.000503552
Integrated number of electrons               ...    56.000009216
Previous integrated no of electrons          ...    56.000734542
Total Energy       :         -291.31723709 Eh           -7927.14503 eV
  Last Energy change         ...   -2.4151e-08  Tolerance :   1.0000e-08
  Last MAX-Density change    ...    4.0873e-06  Tolerance :   1.0000e-07
             **** THE GBW FILE WAS UPDATED (2097_+.gbw) ****
             **** DENSITY FILE WAS UPDATED (2097_+.scfp.tmp) ****
             **** ENERGY FILE WAS UPDATED (2097_+.en.tmp) ****
Total SCF time: 0 days 0 hours 0 min 44 sec 
           ************************************************************
           *              Shut down parallel processing               *
           ************************************************************

-------------------------   --------------------
FINAL SINGLE POINT ENERGY      -291.317237090054
-------------------------   --------------------



           ************************************************************
           *        Program running with 8 parallel MPI-processes     *
           *              working on a common directory               *
           ************************************************************
------------------------------------------------------------------------------
                         ORCA SCF GRADIENT CALCULATION
------------------------------------------------------------------------------

Gradient of the Kohn-Sham DFT energy:
Kohn-Sham wavefunction type      ... RKS
Hartree-Fock exchange scaling    ...    0.250
Number of operators              ...    1
Number of atoms                  ...   21
Basis set dimensions             ...  301
Integral neglect threshold       ... 2.5e-11
Integral primitive cutoff        ... 2.5e-12

Nuclear repulsion gradient       ... done
One Electron Gradient            ... done
Pre-screening matrix             ... done
Starting the two electron gradient:
Two electron gradient done
Exchange-correlation gradient    ... done

------------------
CARTESIAN GRADIENT
------------------

   1   C   :   -0.000000934    0.000003391    0.000014247
   2   C   :    0.000059027   -0.000036331    0.000016560
   3   C   :   -0.000014943    0.000002087   -0.000123204
   4   C   :   -0.000001058   -0.000003007    0.000078298
   5   C   :    0.000012842    0.000084399    0.000011863
   6   C   :   -0.000059783    0.000047457   -0.000001041
   7   N   :   -0.000019178   -0.000057851    0.000030985
   8   H   :   -0.000001258    0.000030247   -0.000028460
   9   H   :   -0.000005091   -0.000010264   -0.000008103
  10   H   :    0.000007800   -0.000015662    0.000026764
  11   H   :   -0.000020721   -0.000033081    0.000000647
  12   H   :   -0.000008915    0.000024674   -0.000017075
  13   H   :    0.000001850    0.000011594    0.000005593
  14   H   :    0.000025067   -0.000031125   -0.000008824
  15   H   :   -0.000000900   -0.000008099   -0.000000958
  16   H   :    0.000007937   -0.000011018   -0.000000234
  17   H   :    0.000017993   -0.000057553    0.000009989
  18   H   :   -0.000004513    0.000005326    0.000008022
  19   H   :    0.000003787    0.000002428   -0.000014585
  20   H   :   -0.000005832    0.000000397   -0.000008011
  21   H   :    0.000006823    0.000051988    0.000007525

Norm of the cartesian gradient     ...    0.000243524
RMS gradient                       ...    0.000030681
MAX gradient                       ...    0.000123204

-------
TIMINGS
-------

Total SCF gradient time            ...       40.868 sec

One electron gradient       ....       0.242 sec  (  0.6%)
Prescreening matrices       ....       0.375 sec  (  0.9%)
Two electron gradient       ....      33.294 sec  ( 81.5%)
XC gradient                 ....       4.533 sec  ( 11.1%)
           ************************************************************
           *              Shut down parallel processing               *
           ************************************************************
------------------------------------------------------------------------------
                         ORCA GEOMETRY RELAXATION STEP
------------------------------------------------------------------------------

Reading the OPT-File                    .... done
Getting information on internals        .... done
Copying old internal coords+grads       .... done
Making the new internal coordinates     .... (new redundants).... done
Validating the new internal coordinates .... (new redundants).... done
Calculating the B-matrix                .... done
Calculating the G,G- and P matrices     .... done
Transforming gradient to internals      .... done
Projecting the internal gradient        .... done
Number of atoms                         ....  21
Number of internal coordinates          ....  96
Current Energy                          ....  -291.317237090 Eh
Current gradient norm                   ....     0.000243524 Eh/bohr
Maximum allowed component of the step   ....  0.300
Current trust radius                    ....  0.300
Updating the Hessian (BFGS)             .... done
Forming the augmented Hessian           .... done
Diagonalizing the augmented Hessian     .... done
Last element of RFO vector              ....  0.999830938
Lowest eigenvalues of augmented Hessian:
 -0.000002064  0.005571642  0.012113944  0.012265205  0.012516888
Length of the computed step             ....  0.018390457
The final length of the internal step   ....  0.018390457
Converting the step to cartesian space:
 Initial RMS(Int)=    0.0018769682
Transforming coordinates:
 Iter   0:  RMS(Cart)=    0.0031714586 RMS(Int)=    0.0018769372
 Iter   1:  RMS(Cart)=    0.0000058907 RMS(Int)=    0.0000044967
 Iter   2:  RMS(Cart)=    0.0000000242 RMS(Int)=    0.0000000149
done
Storing new coordinates                 .... done

                                .--------------------.
          ----------------------|Geometry convergence|---------------------
          Item                value                 Tolerance   Converged
          -----------------------------------------------------------------
          Energy change      -0.00000134            0.00000100      NO
          RMS gradient        0.00002239            0.00003000      YES
          MAX gradient        0.00008612            0.00010000      YES
          RMS step            0.00187697            0.00060000      NO
          MAX step            0.00492559            0.00100000      NO
          ....................................................
          Max(Bonds)      0.0002      Max(Angles)    0.06
          Max(Dihed)        0.28      Max(Improp)    0.00
          -----------------------------------------------------------------

The optimization has not yet converged - more geometry cycles are needed


    ---------------------------------------------------------------------------
                         Redundant Internal Coordinates
                            (Angstroem and degrees)

        Definition                    Value    dE/dq     Step     New-Value
    ----------------------------------------------------------------------------
     1. B(C   1,C   0)                1.4959 -0.000005  0.0000    1.4959   
     2. B(C   2,C   1)                1.3347  0.000028 -0.0001    1.3346   
     3. B(C   3,C   2)                1.4972 -0.000057  0.0002    1.4974   
     4. B(C   4,C   2)                1.5050  0.000062 -0.0002    1.5047   
     5. B(C   5,C   4)                1.5177  0.000015 -0.0001    1.5176   
     6. B(N   6,C   4)                1.5091  0.000002 -0.0000    1.5091   
     7. B(H   7,C   0)                1.0889 -0.000000 -0.0000    1.0889   
     8. B(H   8,C   0)                1.0928 -0.000000 -0.0000    1.0927   
     9. B(H   9,C   0)                1.0933  0.000002  0.0000    1.0933   
    10. B(H  10,C   1)                1.0892 -0.000017  0.0002    1.0893   
    11. B(H  11,C   3)                1.0886 -0.000001  0.0001    1.0887   
    12. B(H  12,C   3)                1.0945  0.000007 -0.0002    1.0943   
    13. B(H  13,C   3)                1.0937  0.000002 -0.0000    1.0937   
    14. B(H  14,C   4)                1.0955  0.000008 -0.0000    1.0955   
    15. B(H  15,C   5)                1.0931 -0.000007  0.0001    1.0932   
    16. B(H  16,C   5)                1.0930 -0.000002 -0.0000    1.0930   
    17. B(H  17,C   5)                1.0894 -0.000004 -0.0001    1.0893   
    18. B(H  18,N   6)                1.0225  0.000003  0.0000    1.0225   
    19. B(H  19,N   6)                1.0225 -0.000005  0.0000    1.0225   
    20. B(H  20,N   6)                1.0207  0.000001 -0.0000    1.0207   
    21. A(C   1,C   0,H   7)          111.10  0.000035   -0.02    111.08   
    22. A(H   8,C   0,H   9)          107.27  0.000012   -0.00    107.26   
    23. A(C   1,C   0,H   9)          111.48 -0.000031    0.02    111.50   
    24. A(H   7,C   0,H   8)          107.69 -0.000020    0.01    107.71   
    25. A(H   7,C   0,H   9)          107.58  0.000001   -0.00    107.57   
    26. A(C   1,C   0,H   8)          111.51  0.000003    0.00    111.51   
    27. A(C   0,C   1,H  10)          114.26  0.000023   -0.01    114.25   
    28. A(C   2,C   1,H  10)          120.42 -0.000022    0.01    120.43   
    29. A(C   0,C   1,C   2)          125.31 -0.000001   -0.00    125.31   
    30. A(C   1,C   2,C   4)          123.49 -0.000027    0.02    123.51   
    31. A(C   1,C   2,C   3)          123.13  0.000030   -0.02    123.11   
    32. A(C   3,C   2,C   4)          113.38 -0.000004   -0.00    113.37   
    33. A(H  12,C   3,H  13)          107.23  0.000019   -0.02    107.21   
    34. A(H  11,C   3,H  13)          107.90 -0.000012    0.01    107.91   
    35. A(H  11,C   3,H  12)          107.26 -0.000011    0.02    107.28   
    36. A(C   2,C   3,H  12)          111.38 -0.000021    0.01    111.39   
    37. A(C   2,C   3,H  11)          111.23  0.000015   -0.00    111.23   
    38. A(C   2,C   3,H  13)          111.61  0.000009   -0.01    111.61   
    39. A(N   6,C   4,H  14)          104.43  0.000017    0.01    104.43   
    40. A(C   2,C   4,N   6)          110.73 -0.000017    0.01    110.74   
    41. A(C   5,C   4,N   6)          108.11 -0.000030    0.01    108.12   
    42. A(C   5,C   4,H  14)          109.59 -0.000024    0.03    109.62   
    43. A(C   2,C   4,H  14)          109.02 -0.000017    0.01    109.04   
    44. A(C   2,C   4,C   5)          114.49  0.000066   -0.06    114.43   
    45. A(H  16,C   5,H  17)          107.22  0.000018   -0.00    107.22   
    46. A(H  15,C   5,H  17)          107.65  0.000000   -0.01    107.64   
    47. A(C   4,C   5,H  17)          109.32  0.000028   -0.02    109.30   
    48. A(H  15,C   5,H  16)          109.50  0.000044   -0.02    109.48   
    49. A(C   4,C   5,H  16)          111.88 -0.000086    0.05    111.93   
    50. A(C   4,C   5,H  15)          111.10  0.000000   -0.00    111.10   
    51. A(C   4,N   6,H  18)          110.28 -0.000024    0.02    110.30   
    52. A(H  19,N   6,H  20)          109.07  0.000009   -0.02    109.05   
    53. A(H  18,N   6,H  20)          108.08 -0.000013    0.02    108.10   
    54. A(C   4,N   6,H  20)          110.99  0.000028   -0.02    110.97   
    55. A(H  18,N   6,H  19)          107.69  0.000009    0.00    107.69   
    56. A(C   4,N   6,H  19)          110.63 -0.000009    0.00    110.63   
    57. D(H  10,C   1,C   0,H   7)      1.61 -0.000025    0.25      1.86   
    58. D(H  10,C   1,C   0,H   8)   -118.54 -0.000025    0.25   -118.29   
    59. D(C   2,C   1,C   0,H   7)   -179.10 -0.000024    0.28   -178.82   
    60. D(C   2,C   1,C   0,H   8)     60.75 -0.000024    0.28     61.03   
    61. D(C   2,C   1,C   0,H   9)    -59.12 -0.000020    0.28    -58.85   
    62. D(H  10,C   1,C   0,H   9)    121.59 -0.000021    0.25    121.84   
    63. D(C   3,C   2,C   1,C   0)     -0.16 -0.000009    0.05     -0.11   
    64. D(C   4,C   2,C   1,H  10)     -0.05 -0.000010    0.05     -0.00   
    65. D(C   4,C   2,C   1,C   0)   -179.29 -0.000011    0.02   -179.28   
    66. D(C   3,C   2,C   1,H  10)    179.08 -0.000007    0.08    179.17   
    67. D(H  13,C   3,C   2,C   1)    141.21 -0.000028    0.25    141.46   
    68. D(H  12,C   3,C   2,C   1)    -98.97 -0.000011    0.22    -98.75   
    69. D(H  11,C   3,C   2,C   4)   -160.15 -0.000027    0.28   -159.87   
    70. D(H  12,C   3,C   2,C   4)     80.25 -0.000009    0.25     80.50   
    71. D(H  11,C   3,C   2,C   1)     20.64 -0.000029    0.24     20.89   
    72. D(H  13,C   3,C   2,C   4)    -39.58 -0.000026    0.28    -39.30   
    73. D(H  14,C   4,C   2,C   3)     56.74  0.000003   -0.08     56.65   
    74. D(H  14,C   4,C   2,C   1)   -124.05  0.000006   -0.05   -124.11   
    75. D(N   6,C   4,C   2,C   3)    171.08  0.000005   -0.06    171.02   
    76. D(N   6,C   4,C   2,C   1)     -9.71  0.000008   -0.03     -9.74   
    77. D(C   5,C   4,C   2,C   3)    -66.41  0.000001   -0.09    -66.49   
    78. D(C   5,C   4,C   2,C   1)    112.80  0.000003   -0.06    112.75   
    79. D(H  17,C   5,C   4,N   6)   -176.47  0.000010    0.02   -176.46   
    80. D(H  17,C   5,C   4,C   2)     59.60  0.000009    0.04     59.64   
    81. D(H  16,C   5,C   4,H  14)     55.37 -0.000011    0.06     55.43   
    82. D(H  16,C   5,C   4,N   6)    -57.87 -0.000003    0.04    -57.83   
    83. D(H  16,C   5,C   4,C   2)    178.21 -0.000004    0.05    178.27   
    84. D(H  15,C   5,C   4,H  14)    178.10 -0.000016    0.07    178.17   
    85. D(H  15,C   5,C   4,N   6)     64.86 -0.000008    0.04     64.90   
    86. D(H  17,C   5,C   4,H  14)    -63.23  0.000002    0.04    -63.19   
    87. D(H  15,C   5,C   4,C   2)    -59.06 -0.000009    0.06    -59.00   
    88. D(H  20,N   6,C   4,H  14)    -57.53 -0.000019    0.17    -57.36   
    89. D(H  20,N   6,C   4,C   2)   -174.73 -0.000001    0.15   -174.59   
    90. D(H  19,N   6,C   4,H  14)     63.69  0.000004    0.13     63.83   
    91. D(H  19,N   6,C   4,C   5)   -179.67 -0.000028    0.17   -179.50   
    92. D(H  19,N   6,C   4,C   2)    -53.51  0.000023    0.11    -53.40   
    93. D(H  18,N   6,C   4,H  14)   -177.27 -0.000006    0.15   -177.12   
    94. D(H  20,N   6,C   4,C   5)     59.11 -0.000052    0.21     59.32   
    95. D(H  18,N   6,C   4,C   5)    -60.64 -0.000038    0.19    -60.45   
    96. D(H  18,N   6,C   4,C   2)     65.52  0.000012    0.13     65.65   
    ----------------------------------------------------------------------------

         *************************************************************
         *                GEOMETRY OPTIMIZATION CYCLE   3            *
         *************************************************************
---------------------------------
CARTESIAN COORDINATES (ANGSTROEM)
---------------------------------
  C      2.212241    0.002083   -1.596120
  C      1.321107    0.036822   -0.395080
  C      0.014860   -0.236830   -0.395516
  C     -0.740217   -0.620089   -1.630496
  C     -0.847439   -0.173994    0.836052
  C     -1.887965    0.930555    0.817965
  N     -0.000595   -0.000662    2.073066
  H      3.239501    0.244804   -1.328746
  H      1.888702    0.717595   -2.356010
  H      2.217420   -0.986674   -2.062724
  H      1.824317    0.324523    0.527230
  H     -0.069962   -0.995750   -2.401755
  H     -1.274800    0.236072   -2.053291
  H     -1.483229   -1.395548   -1.423848
  H     -1.340945   -1.141892    0.976446
  H     -1.418371    1.911971    0.711253
  H     -2.510198    0.920007    1.716485
  H     -2.550510    0.787147   -0.034721
  H      0.468977    0.907523    2.057124
  H      0.721547   -0.723104    2.119522
  H     -0.572899   -0.046951    2.916935

----------------------------
CARTESIAN COORDINATES (A.U.)
----------------------------
  NO LB      ZA    FRAG    MASS        X           Y           Z
   0 C     6.0000    0    12.011          4.180528918601745          0.003935838148369         -3.016230029588198
   1 C     6.0000    0    12.011          2.496530868213303          0.069584293171867         -0.746592670822411
   2 C     6.0000    0    12.011          0.028081976118513         -0.447543215431523         -0.747417475435072
   3 C     6.0000    0    12.011         -1.398808123067515         -1.171797938194796         -3.081190245841275
   4 C     6.0000    0    12.011         -1.601427679329624         -0.328801318340779          1.579908491197095
   5 C     6.0000    0    12.011         -3.567737081357489          1.758494000556031          1.545729850130960
   6 N     7.0000    0    14.007         -0.001123668781010         -0.001251147419353          3.917526545625991
   7 H     1.0000    0     1.008          6.121769478813097          0.462612588065175         -2.510965767572181
   8 H     1.0000    0     1.008          3.569129472609112          1.356058699471205         -4.452214392566216
   9 H     1.0000    0     1.008          4.190317242610510         -1.864542752980718         -3.897982951563315
  10 H     1.0000    0     1.008          3.447459036848986          0.613258707392963          0.996319563153088
  11 H     1.0000    0     1.008         -0.132208961279376         -1.881695241319588         -4.538659370309752
  12 H     1.0000    0     1.008         -2.409022596828642          0.446111591074552         -3.880156773577397
  13 H     1.0000    0     1.008         -2.802896906216341         -2.637202848322203         -2.690682043308225
  14 H     1.0000    0     1.008         -2.534019188479077         -2.157863549189413          1.845216464623283
  15 H     1.0000    0     1.008         -2.680331961410252          3.613101643279120          1.344073652284761
  16 H     1.0000    0     1.008         -4.743586619211651          1.738561573880912          3.243686737872455
  17 H     1.0000    0     1.008         -4.819766132921430          1.487492585883920         -0.065612291733949
  18 H     1.0000    0     1.008          0.886239015420524          1.714969129534212          3.887400116473496
  19 H     1.0000    0     1.008          1.363525696843426         -1.366469118387523          4.005316331772861
  20 H     1.0000    0     1.008         -1.082621664543674         -0.088724335544185          5.512208617332710

--------------------------------
INTERNAL COORDINATES (ANGSTROEM)
--------------------------------
 C      0   0   0   0.000000     0.000     0.000
 C      1   0   0   1.495936     0.000     0.000
 C      2   1   0   1.334604   125.312     0.000
 C      3   2   1   1.497399   123.113   359.890
 C      3   2   1   1.504748   123.508   180.723
 C      5   3   2   1.517580   114.428   112.747
 N      5   3   2   1.509104   110.739   350.258
 H      1   2   3   1.088883   111.080   181.179
 H      1   2   3   1.092734   111.514    61.027
 H      1   2   3   1.093336   111.498   301.151
 H      2   1   3   1.089333   114.250   180.684
 H      4   3   2   1.088671   111.232    20.885
 H      4   3   2   1.094324   111.391   261.254
 H      4   3   2   1.093666   111.606   141.459
 H      5   3   2   1.095484   109.035   235.893
 H      6   5   3   1.093199   111.103   300.998
 H      6   5   3   1.092988   111.933   178.266
 H      6   5   3   1.089314   109.301    59.641
 H      7   5   3   1.022522   110.300    65.647
 H      7   5   3   1.022531   110.634   306.599
 H      7   5   3   1.020681   110.968   185.415

---------------------------
INTERNAL COORDINATES (A.U.)
---------------------------
 C      0   0   0   0.000000     0.000     0.000
 C      1   0   0   2.826909     0.000     0.000
 C      2   1   0   2.522035   125.312     0.000
 C      3   2   1   2.829674   123.113   359.890
 C      3   2   1   2.843562   123.508   180.723
 C      5   3   2   2.867811   114.428   112.747
 N      5   3   2   2.851792   110.739   350.258
 H      1   2   3   2.057691   111.080   181.179
 H      1   2   3   2.064969   111.514    61.027
 H      1   2   3   2.066107   111.498   301.151
 H      2   1   3   2.058541   114.250   180.684
 H      4   3   2   2.057290   111.232    20.885
 H      4   3   2   2.067973   111.391   261.254
 H      4   3   2   2.066730   111.606   141.459
 H      5   3   2   2.070165   109.035   235.893
 H      6   5   3   2.065847   111.103   300.998
 H      6   5   3   2.065448   111.933   178.266
 H      6   5   3   2.058505   109.301    59.641
 H      7   5   3   1.932287   110.300    65.647
 H      7   5   3   1.932303   110.634   306.599
 H      7   5   3   1.928808   110.968   185.415



           ************************************************************
           *        Program running with 8 parallel MPI-processes     *
           *              working on a common directory               *
           ************************************************************
           ************************************************************
           *              Shut down parallel processing               *
           ************************************************************


           ************************************************************
           *        Program running with 8 parallel MPI-processes     *
           *              working on a common directory               *
           ************************************************************

Diagonalization of the overlap matrix:
Smallest eigenvalue                        ... 8.631e-05
Time for diagonalization                   ...    0.111 sec
Threshold for overlap eigenvalues          ... 1.000e-08
Number of eigenvalues below threshold      ... 0
Time for construction of square roots      ...    0.026 sec
Total time needed                          ...    0.137 sec

-------------------
DFT GRID GENERATION
-------------------

General Integration Accuracy     IntAcc      ...  4.340
Radial Grid Type                 RadialGrid  ... Gauss-Chebyshev
Angular Grid (max. acc.)         AngularGrid ... Lebedev-194
Angular grid pruning method      GridPruning ... 3 (G Style)
Weight generation scheme         WeightScheme... Becke
Basis function cutoff            BFCut       ...    1.0000e-11
Integration weight cutoff        WCut        ...    1.0000e-14
Grids for H and He will be reduced by one unit

# of grid points (after initial pruning)     ...  44398 (   0.0 sec)
# of grid points (after weights+screening)   ...  40182 (   0.1 sec)
nearest neighbour list constructed           ...    0.0 sec
Grid point re-assignment to atoms done       ...    0.0 sec
Grid point division into batches done        ...    0.1 sec
Reduced shell lists constructed in    0.1 sec

Total number of grid points                  ...    40182
Total number of batches                      ...      638
Average number of points per batch           ...       62
Average number of grid points per atom       ...     1913
Average number of shells per batch           ...   104.68 (78.71%)
Average number of basis functions per batch  ...   246.73 (81.97%)
Average number of large shells per batch     ...    84.41 (80.63%)
Average number of large basis fcns per batch ...   198.16 (80.32%)
Maximum spatial batch extension              ...   2.71,  3.25,  3.07 au
Average spatial batch extension              ...   0.16,  0.17,  0.17 au

Time for grid setup =    0.633 sec

--------------
SCF ITERATIONS
--------------
ITER       Energy         Delta-E        Max-DP      RMS-DP      [F,P]     Damp
               ***  Starting incremental Fock matrix formation  ***
                      *** Initiating the SOSCF procedure ***
                      *** Re-Reading the Fockian *** 
                      *** Removing any level shift *** 
ITER      Energy       Delta-E        Grad      Rot      Max-DP    RMS-DP
  0   -291.31773225 -291.3177322528  0.000277  0.000277  0.000571  0.000015
               *** Restarting incremental Fock matrix formation ***
  1   -291.31774119  -0.0000089334  0.000103  0.000276  0.000277  0.000006
  2   -291.31774211  -0.0000009206  0.000030  0.000128  0.000068  0.000002
  3   -291.31774210   0.0000000101  0.000064  0.000089  0.000046  0.000001
  4   -291.31774213  -0.0000000360  0.000004  0.000007  0.000005  0.000000
                  ***Gradient check signals convergence***
              ***Rediagonalizing the Fockian in SOSCF/NRSCF***

               *****************************************************
               *                     SUCCESS                       *
               *           SCF CONVERGED AFTER   5 CYCLES          *
               *****************************************************

Setting up the final grid:

General Integration Accuracy     IntAcc      ...  5.010
Radial Grid Type                 RadialGrid  ... Gauss-Chebyshev
Angular Grid (max. acc.)         AngularGrid ... Lebedev-434
Angular grid pruning method      GridPruning ... 3 (G Style)
Weight generation scheme         WeightScheme... Becke
Basis function cutoff            BFCut       ...    1.0000e-11
Integration weight cutoff        WCut        ...    1.0000e-14
Grids for H and He will be reduced by one unit

# of grid points (after initial pruning)     ... 168466 (   0.0 sec)
# of grid points (after weights+screening)   ... 150709 (   0.3 sec)
nearest neighbour list constructed           ...    0.0 sec
Grid point re-assignment to atoms done       ...    0.0 sec
Grid point division into batches done        ...    1.1 sec
Reduced shell lists constructed in    1.5 sec

Total number of grid points                  ...   150709
Total number of batches                      ...     2367
Average number of points per batch           ...       63
Average number of grid points per atom       ...     7177
Average number of shells per batch           ...   103.69 (77.96%)
Average number of basis functions per batch  ...   244.87 (81.35%)
Average number of large shells per batch     ...    82.73 (79.78%)
Average number of large basis fcns per batch ...   194.33 (79.36%)
Maximum spatial batch extension              ...   2.18,  3.60,  2.89 au
Average spatial batch extension              ...   0.11,  0.11,  0.11 au

Final grid set up in    2.5 sec
Final integration                            ... done (   1.3 sec)
Change in XC energy                          ...     0.000503727
Integrated number of electrons               ...    56.000006837
Previous integrated no of electrons          ...    56.000734539
Total Energy       :         -291.31723841 Eh           -7927.14507 eV
  Last Energy change         ...    3.3049e-10  Tolerance :   1.0000e-08
  Last MAX-Density change    ...    3.7414e-06  Tolerance :   1.0000e-07
             **** THE GBW FILE WAS UPDATED (2097_+.gbw) ****
             **** DENSITY FILE WAS UPDATED (2097_+.scfp.tmp) ****
             **** ENERGY FILE WAS UPDATED (2097_+.en.tmp) ****
Total SCF time: 0 days 0 hours 0 min 48 sec 
           ************************************************************
           *              Shut down parallel processing               *
           ************************************************************

-------------------------   --------------------
FINAL SINGLE POINT ENERGY      -291.317238405862
-------------------------   --------------------



           ************************************************************
           *        Program running with 8 parallel MPI-processes     *
           *              working on a common directory               *
           ************************************************************
------------------------------------------------------------------------------
                         ORCA SCF GRADIENT CALCULATION
------------------------------------------------------------------------------

Gradient of the Kohn-Sham DFT energy:
Kohn-Sham wavefunction type      ... RKS
Hartree-Fock exchange scaling    ...    0.250
Number of operators              ...    1
Number of atoms                  ...   21
Basis set dimensions             ...  301
Integral neglect threshold       ... 2.5e-11
Integral primitive cutoff        ... 2.5e-12

Nuclear repulsion gradient       ... done
One Electron Gradient            ... done
Pre-screening matrix             ... done
Starting the two electron gradient:
Two electron gradient done
Exchange-correlation gradient    ... done

------------------
CARTESIAN GRADIENT
[...]
     28       0.004073  -0.009195  -0.014786  -0.148334   0.528941  -0.117899
     29      -0.006953  -0.009439  -0.008135  -0.085373   0.290507  -0.064147
     30      -0.009934  -0.263283   0.038675  -0.000213   0.000097  -0.001256
     31      -0.009699  -0.053683   0.018107  -0.001889  -0.000568  -0.000468
     32       0.010412  -0.946289   0.101731  -0.001768  -0.000401  -0.002265
     33       0.000223  -0.012494  -0.008272  -0.085255   0.002941   0.003979
     34      -0.000420   0.000517   0.001032   0.041175   0.004292  -0.004781
     35       0.002019  -0.008203   0.000106   0.115783   0.014922  -0.010873
     36      -0.000753  -0.016092   0.009443   0.057847   0.021316  -0.019117
     37       0.002432   0.025061  -0.010162  -0.079168  -0.037890   0.039728
     38      -0.000538  -0.012122   0.005062   0.083691   0.026373  -0.023375
     39       0.000585   0.002899  -0.019862   0.673655   0.149392  -0.071284
     40      -0.001342  -0.001675  -0.015002   0.588106   0.134005  -0.065287
     41      -0.003327   0.005093   0.012724  -0.305628  -0.062922   0.029620
     42      -0.021621   0.034534   0.378905   0.006998   0.013750   0.013226
     43      -0.017758   0.091270   0.860608   0.014422   0.026132   0.022755
     44       0.003902  -0.049519  -0.299062  -0.006065  -0.003814   0.000205
     45      -0.019253   0.004778   0.008750  -0.020109  -0.089516  -0.345488
     46      -0.002089   0.008826   0.035203  -0.038738  -0.186063  -0.715612
     47      -0.012203  -0.004841  -0.009994   0.006286   0.027509   0.102606
     48       0.023734  -0.000096  -0.004770   0.011881   0.053388   0.219483
     49      -0.008756   0.004209  -0.003877   0.001089   0.003883   0.010387
     50       0.020721   0.010508   0.008054  -0.016248  -0.076001  -0.323876
     51       0.022004   0.003370   0.006370   0.013996   0.048212   0.214893
     52       0.016631   0.004574  -0.001512   0.001573   0.010578   0.046826
     53      -0.020128   0.009145   0.002219   0.019579   0.067360   0.299109
     54       0.379097   0.010374   0.016656  -0.000030  -0.002189  -0.007914
     55      -0.217179  -0.002365   0.005842   0.000270  -0.001557  -0.003931
     56       0.163263  -0.003930   0.004252   0.001227   0.000267  -0.002079
     57       0.425025   0.013768   0.001600   0.000638  -0.001038  -0.002188
     58       0.419913  -0.006190   0.007008   0.000323  -0.000991  -0.002011
     59      -0.393217   0.001962  -0.006010  -0.000185  -0.000236  -0.001749
     60      -0.343175   0.003018  -0.010826  -0.000945   0.001365  -0.000739
     61       0.344638   0.002234   0.002999  -0.000096   0.001538   0.000867
     62      -0.166544  -0.013411   0.010385   0.000422  -0.001246  -0.001453
                 54         55         56         57         58         59    
      0      -0.001201  -0.018942  -0.002197   0.010208  -0.006349   0.075206
      1       0.001378   0.089651   0.000478   0.006890  -0.006682   0.017577
      2      -0.002007  -0.009321  -0.000233   0.003479  -0.001965   0.034169
      3      -0.004388  -0.002694  -0.000511  -0.000510  -0.000521   0.003580
      4      -0.000823  -0.000859  -0.000319  -0.000271  -0.000439   0.003844
      5      -0.003332  -0.004221  -0.000247  -0.000447  -0.000380   0.006145
      6      -0.002516  -0.000079  -0.000596  -0.000368  -0.000545   0.000678
      7      -0.004291  -0.001951  -0.000870  -0.000289  -0.000362   0.001493
      8      -0.002078  -0.000028   0.000346  -0.000183  -0.000927   0.000522
      9       0.017876  -0.002724  -0.000209   0.047467  -0.041096  -0.010078
     10      -0.061814   0.006124   0.000766  -0.028898   0.026993   0.004997
     11       0.049178   0.002089   0.000380  -0.036997   0.030569   0.009363
     12      -0.001256  -0.000305   0.000968   0.000195  -0.001047   0.000997
     13      -0.000939  -0.000111   0.001862   0.001198  -0.000387   0.001304
     14       0.000801   0.000224   0.000575  -0.000326  -0.001760  -0.000591
     15      -0.001027  -0.001317   0.073358  -0.009537  -0.010980   0.002018
     16      -0.002918  -0.000054   0.042281  -0.008142  -0.008290   0.001332
     17      -0.001455  -0.000461  -0.022999  -0.059257  -0.066893   0.000586
     18       0.001392   0.000643   0.000392   0.000126   0.000802  -0.000797
     19       0.001959   0.000674   0.000523  -0.000071  -0.000329  -0.001083
     20      -0.000849  -0.000336  -0.000252   0.000032   0.000055   0.000324
     21       0.013085   0.111905   0.027648  -0.128184   0.089989  -0.900926
     22       0.003148   0.021559   0.002850  -0.014470   0.010576  -0.107494
     23       0.001813   0.032886   0.007669  -0.033777   0.023634  -0.247436
     24       0.008525   0.177035   0.000975   0.010036  -0.010323  -0.015299
     25      -0.024641  -0.472079  -0.001960  -0.023516   0.025660   0.085255
     26       0.021175   0.452880   0.002606   0.021002  -0.023351  -0.069088
     27      -0.000453  -0.055729  -0.001707  -0.000893   0.002934  -0.005384
     28       0.008209  -0.616730  -0.010078  -0.041868   0.046623  -0.221849
     29       0.004401  -0.356405  -0.005741  -0.022802   0.025977  -0.117970
     30       0.010154   0.017418   0.000373   0.001324   0.002831  -0.021539
     31       0.004581   0.015614  -0.000009   0.001493   0.002115  -0.011091
     32       0.020113   0.032232   0.000640   0.004058   0.005497  -0.047847
     33       0.116860   0.042046   0.002878  -0.476331   0.414262   0.104754
     34      -0.098870  -0.027771  -0.001898   0.290395  -0.251431  -0.068689
     35      -0.112789  -0.041207  -0.004002   0.460689  -0.397463  -0.109798
     36      -0.374984   0.007342  -0.002501  -0.031017   0.039920   0.002256
     37       0.806969  -0.024281   0.003038   0.108648  -0.117348  -0.010069
     38      -0.380625   0.011232  -0.001140  -0.057172   0.061779   0.007211
     39       0.104797  -0.016431  -0.001459  -0.040503   0.032165   0.017888
     40       0.061069  -0.015646  -0.001487  -0.053231   0.043347   0.019355
     41      -0.047608   0.004839   0.000503   0.029303  -0.023432  -0.011427
     42       0.006215   0.000167   0.012118  -0.006056  -0.001073  -0.007178
     43       0.009425  -0.000624   0.012987  -0.013493  -0.003620  -0.013894
     44      -0.000649   0.000407   0.004534   0.002599   0.000082   0.000583
     45       0.011042  -0.000198  -0.220975   0.021597   0.027146  -0.008017
     46       0.026294   0.000519  -0.475893   0.046529   0.056588  -0.016932
     47      -0.005583  -0.001246   0.059690  -0.015970  -0.017682   0.002923
     48      -0.013762   0.003736  -0.395033  -0.228374  -0.254856  -0.003577
     49      -0.000484   0.000082  -0.006265  -0.007507  -0.007200  -0.000905
     50       0.017988  -0.006072   0.582408   0.314781   0.353873   0.004809
     51       0.003096   0.011379  -0.265569   0.312718   0.364830  -0.011780
     52      -0.000942   0.001818  -0.048327   0.059958   0.070713  -0.001800
     53       0.007253   0.015947  -0.379219   0.412187   0.480466  -0.016588
     54      -0.000457   0.000109  -0.005754  -0.001306   0.001472   0.000881
     55       0.001784   0.001121  -0.005786  -0.001703  -0.000441   0.001657
     56      -0.000583  -0.000365  -0.001659  -0.000126  -0.000697   0.000150
     57       0.002988   0.001467  -0.003397  -0.002252  -0.000388  -0.001037
     58      -0.000436   0.000138  -0.000438   0.001916   0.001279  -0.000192
     59       0.000383   0.000435  -0.000614   0.000934   0.001473  -0.000248
     60       0.004326   0.001353   0.003180   0.002048   0.001297  -0.002684
     61       0.003695   0.001139  -0.000649  -0.000517  -0.001365  -0.002294
     62      -0.003302  -0.001267   0.002112   0.000731   0.001867   0.002139
                  60         61         62    
      0       0.000527  -0.000034   0.001066
      1       0.000241   0.000023   0.000194
      2       0.000547  -0.000100   0.001178
      3      -0.000259   0.000025  -0.001624
      4      -0.000115   0.000202  -0.000295
      5      -0.000219   0.000258  -0.001099
      6      -0.000533  -0.000210  -0.000287
      7      -0.000403  -0.000269  -0.001397
      8      -0.000166   0.000297  -0.000959
      9      -0.000017   0.000287  -0.000283
     10       0.000086  -0.000147   0.000638
     11      -0.000352   0.000430  -0.001228
     12       0.001540   0.000531  -0.000981
     13       0.000849   0.001731   0.000682
     14       0.002926   0.000649   0.001080
     15      -0.001077  -0.000480   0.000172
     16      -0.001346  -0.000850  -0.000239
     17      -0.000219   0.000024   0.000133
     18       0.025788   0.026766  -0.059969
     19       0.018325   0.065323   0.041584
     20       0.026128  -0.038880   0.032428
     21      -0.001824  -0.000720  -0.002323
     22      -0.000253  -0.000597   0.000045
     23      -0.000498  -0.000182  -0.000181
     24      -0.000188   0.000105  -0.000144
     25       0.001323  -0.000653   0.001781
     26      -0.001054  -0.000080  -0.001068
     27       0.000089  -0.000168   0.000446
     28      -0.001336  -0.000584   0.000512
     29      -0.000759   0.000220   0.000534
     30      -0.000646  -0.000754   0.007506
     31      -0.000644  -0.003190   0.003299
     32      -0.001624  -0.001621   0.010349
     33       0.000406  -0.000292   0.000346
     34      -0.001373  -0.000749   0.000052
     35      -0.002971  -0.000569   0.000395
     36       0.000852  -0.000600   0.002017
     37      -0.001336  -0.000244  -0.002882
     38       0.000844  -0.000725   0.002527
     39       0.000195  -0.001550   0.001042
     40      -0.000359  -0.001565  -0.000744
     41       0.000289   0.000029   0.000847
     42       0.005722   0.001106   0.004665
     43       0.011292   0.001393   0.003974
     44      -0.001609   0.002822   0.000405
     45       0.004243   0.003860   0.000475
     46       0.006291   0.004359   0.000301
     47      -0.000452  -0.000641   0.000077
     48       0.002470   0.000899  -0.001167
     49       0.000055   0.000858  -0.000221
     50      -0.002238  -0.001216   0.002462
     51      -0.001831   0.000036   0.000767
     52       0.000795  -0.000173   0.000112
     53      -0.000932   0.000671   0.001384
     54      -0.313693  -0.295685  -0.062170
     55      -0.647842  -0.603991  -0.094968
     56       0.028319   0.009312   0.006196
     57      -0.346866   0.281943   0.566836
     58       0.333401  -0.258899  -0.548409
     59      -0.010049   0.002627   0.025297
     60       0.290579  -0.361540   0.338096
     61       0.053542  -0.051896   0.064290
     62      -0.400321   0.511053  -0.489178


-----------
IR SPECTRUM
-----------

 Mode    freq (cm**-1)   T**2         TX         TY         TZ
-------------------------------------------------------------------
  18:       155.59    1.848161  ( -0.368028  -0.519554  -1.201158)
  19:       253.70   13.122344  (  1.979733  -0.936749  -2.885395)
  20:       308.47    6.510881  ( -0.361817   2.444773  -0.634866)
  21:       410.48    8.116464  (  0.776638  -1.302691   2.411699)
  22:       515.35    2.360579  ( -0.365295   1.143088  -0.959421)
  23:       580.78    6.088560  (  1.369002   1.756253   1.063000)
  24:       715.43    0.254747  ( -0.108456  -0.357625  -0.339247)
  25:       820.63    3.315029  (  0.071866  -1.198469  -1.368772)
  26:       875.77    9.972604  (  1.315290  -1.045716  -2.673779)
  27:       932.01    6.744891  ( -1.109134  -1.395237  -1.888922)
  28:       933.13    2.208085  (  0.994504   0.680393  -0.869548)
  29:       991.19    2.574165  ( -0.840428  -1.366023  -0.042740)
  30:      1017.08    6.532989  ( -1.754050   1.290869   1.337893)
  31:      1061.68    7.312910  (  1.548488   1.158111  -1.890469)
  32:      1113.76   15.269459  ( -0.877470   2.311324  -3.026101)
  33:      1123.26    7.162494  (  0.962697   2.135478   1.294389)
  34:      1137.82    6.704672  (  1.475468  -2.043229   0.594039)
  35:      1221.79   34.563417  ( -2.081110   0.091829   5.497633)
  36:      1300.65    9.639716  ( -1.766632  -0.358673   2.527861)
  37:      1335.75   16.287147  ( -1.546710   3.677226   0.610611)
  38:      1374.36    5.116456  (  1.347175   1.595083   0.870221)
  39:      1392.32    4.667591  (  0.954384   1.853808  -0.565806)
  40:      1396.59   27.884037  ( -2.736202   3.727596  -2.549953)
  41:      1417.37   14.246889  (  2.825177  -0.443004  -2.463537)
  42:      1429.66    6.282375  ( -1.426645   0.958663  -1.824287)
  43:      1445.45   43.295344  (  4.466396   1.147859   4.693513)
  44:      1454.57    7.806627  ( -0.745512   1.339542   2.335908)
  45:      1459.83  116.326935  (  4.833493   0.282343   9.637664)
  46:      1539.89    5.582040  (  2.188105   0.880715   0.136291)
  47:      1597.32   52.921732  ( -3.101192   5.688507   3.308357)
  48:      1637.23   59.283048  (  2.287787   4.854232  -5.521368)
  49:      2672.31   59.037563  (  0.655280   2.292232   7.304372)
  50:      2768.94    3.201375  ( -0.014542  -0.334148  -1.757700)
  51:      2988.87    9.487252  ( -2.417999  -1.635090   0.983368)
  52:      3007.16    0.538830  (  0.020265   0.185819  -0.709852)
  53:      3013.35    3.660279  (  0.394068   1.127642   1.494461)
  54:      3051.02    1.967975  (  0.547767  -1.059233   0.738885)
  55:      3088.57    2.515105  ( -0.124747   1.576720  -0.116177)
  56:      3111.46    6.041285  (  1.774992   0.525407  -1.616984)
  57:      3128.88    5.347104  (  1.397605  -0.723141  -1.694365)
  58:      3129.76    0.156619  (  0.118832   0.053218  -0.373718)
  59:      3142.73    7.306893  (  2.627406   0.632990  -0.054356)
  60:      3393.87   27.929147  ( -2.621127  -1.518432  -4.330497)
  61:      3478.65   81.352971  ( -2.880773  -6.918628   5.018636)
  62:      3503.78   82.529306  (  6.447446  -4.363341  -4.681987)

The first frequency considered to be a vibration is 18
The total number of vibrations considered is 45


--------------------------
THERMOCHEMISTRY AT 298.15K
--------------------------

Temperature         ... 298.15 K
Pressure            ... 1.00 atm
Total Mass          ... 100.18 AMU

Throughout the following assumptions are being made:
  (1) The electronic state is orbitally nondegenerate
  (2) There are no thermally accessible electronically excited states
  (3) Hindered rotations indicated by low frequency modes) are not
      treated as such but are treated as vibrations and this may
      case some error
  (4) All equations used are the standard statistical mechanics
      equations for an ideal gas
  (5) All vibrations are strinctly harmonic


------------
INNER ENERGY
------------

The inner energy is: U= E(el) + E(ZPE) + E(vib) + E(rot) + E(trans)
    E(el)   - is the total energy from the electronic structure calculation
              = E(kin-el) + E(nuc-el) + E(el-el) + E(nuc-nuc)
    E(ZPE)  - the the zero temperature vibrational energy from the frequency calculation
    E(vib)  - the the finite temperature correction to E(ZPE) due to population
              of excietd vibrational states
    E(rot)  - is the rotational thermal energy
    E(trans)- is the translational thermal energy

Summary of contributions to the inner energy U:
Electronic energy                ...   -291.31726002 Eh
Zero point energy                ...      0.17411639 Eh     109.26 kcal/mol
Thermal vibrational correction   ...      0.00281261 Eh       1.76 kcal/mol
Thermal rotational correction    ...      0.00141627 Eh       0.89 kcal/mol
Thermal translational correction ...      0.00141627 Eh       0.89 kcal/mol
-----------------------------------------------------------------------
Total thermal energy                   -291.13749848 Eh


Summary of corrections to the electronic energy:
(perhaps to be used in another calculation)
Total thermal correction                  0.00564515 Eh       3.54 kcal/mol
Non-thermal (ZPE) correction              0.17411639 Eh     109.26 kcal/mol
-----------------------------------------------------------------------
Total correction                          0.17976154 Eh     112.80 kcal/mol


--------
ENTHALPY
--------

The enthalpy is H = U + kB*T
                kB is Boltzmann's constant
Total free energy                 ...   -291.13749848 Eh 
Thermal Enthalpy correction       ...      0.00094421 Eh       0.59 kcal/mol
-----------------------------------------------------------------------
Total Enthalpy                    ...   -291.13655427 Eh


-------
ENTROPY
-------

The entropy contributions are T*S = T*(S(el)+S(vib)+S(rot)+S(trans)
     S(el)   - electronic entropy
     S(vib)  - vibrational entropy
     S(rot)  - rotational entropy
     S(trans)- translational entropy
The entropies will be listed as mutliplied by the temperature to get
units of energy

Electronic entropy                ...      0.00000000 Eh      0.00 kcal/mol
Vibrational entropy               ...      0.00439878 Eh      2.76 kcal/mol
Rotational entropy                ...      0.01226115 Eh      7.69 kcal/mol
Translational entropy             ...      0.01887386 Eh     11.84 kcal/mol
-----------------------------------------------------------------------
Final entropy term                ...      0.03553380 Eh     22.30 kcal/mol


CAUTION: The rotational entropy is not quite correctly treated here
         because it includes a symmetry number that is not yet correctly
         implemented in ORCA!
For a nonlinear molecule the correct rotational entropy is:
    S(rot) = R*(ln(qrot/sn)+1.5)
    R    = 8.31441 J/mol/K = 1.987191683e-3 kcal/mol/K
    qrot = 292036.4459567
    sn is the rotational symmetry number. We have assumed 3 here
       if it is different for your molecule then you should correct
       the printed rotational entropy by manually evaluating the equation
       as given above

For convenience we print out the resulting values for sn=1 - 12:
 sn= 1  qrot/sn=  292036.4460 T*S(rot)=     8.34 kcal/mol T*S(tot)=    22.95 kcal/mol
 sn= 2  qrot/sn=  146018.2230 T*S(rot)=     7.93 kcal/mol T*S(tot)=    22.54 kcal/mol
 sn= 3  qrot/sn=   97345.4820 T*S(rot)=     7.69 kcal/mol T*S(tot)=    22.30 kcal/mol
 sn= 4  qrot/sn=   73009.1115 T*S(rot)=     7.52 kcal/mol T*S(tot)=    22.13 kcal/mol
 sn= 5  qrot/sn=   58407.2892 T*S(rot)=     7.39 kcal/mol T*S(tot)=    22.00 kcal/mol
 sn= 6  qrot/sn=   48672.7410 T*S(rot)=     7.28 kcal/mol T*S(tot)=    21.89 kcal/mol
 sn= 7  qrot/sn=   41719.4923 T*S(rot)=     7.19 kcal/mol T*S(tot)=    21.80 kcal/mol
 sn= 8  qrot/sn=   36504.5557 T*S(rot)=     7.11 kcal/mol T*S(tot)=    21.72 kcal/mol
 sn= 9  qrot/sn=   32448.4940 T*S(rot)=     7.04 kcal/mol T*S(tot)=    21.65 kcal/mol
 sn=10  qrot/sn=   29203.6446 T*S(rot)=     6.98 kcal/mol T*S(tot)=    21.58 kcal/mol
 sn=11  qrot/sn=   26548.7678 T*S(rot)=     6.92 kcal/mol T*S(tot)=    21.53 kcal/mol
 sn=12  qrot/sn=   24336.3705 T*S(rot)=     6.87 kcal/mol T*S(tot)=    21.48 kcal/mol


-------------------
GIBBS FREE ENTHALPY
-------------------

The Gibbs free enthalpy is G = H - T*S

Total enthalpy                    ...   -291.13655427 Eh 
Total entropy correction          ...     -0.03553380 Eh    -22.30 kcal/mol
-----------------------------------------------------------------------
Final Gibbs free enthalpy         ...   -291.17208807 Eh

For completeness - the Gibbs free enthalpy minus the electronic energy
G-E(el)                           ...      0.14517195 Eh     91.10 kcal/mol


Timings for individual modules:

Sum of individual times         ...     3729.157 sec (=  62.153 min)
GTO integral calculation        ...       21.815 sec (=   0.364 min)   0.6 %
SCF iterations                  ...      571.143 sec (=   9.519 min)  15.3 %
SCF Gradient evaluation         ...      426.292 sec (=   7.105 min)  11.4 %
Geometry relaxation             ...        0.793 sec (=   0.013 min)   0.0 %
Analytical frequency calculation...     2709.114 sec (=  45.152 min)  72.6 %
                             ****ORCA TERMINATED NORMALLY****
TOTAL RUN TIME: 0 days 1 hours 2 minutes 11 seconds 283 msec
