
                                 *****************
                                 * O   R   C   A *
                                 *****************

           --- An Ab Initio, DFT and Semiempirical electronic structure package ---

                  #######################################################
                  #                        -***-                        #
                  #  Department of molecular theory and spectroscopy    #
                  #              Directorship: Frank Neese              #
                  # Max Planck Institute for Chemical Energy Conversion #
                  #                  D-45470 Muelheim/Ruhr              #
                  #                       Germany                       #
                  #                                                     #
                  #                  All rights reserved                #
                  #                        -***-                        #
                  #######################################################


                         Program Version 3.0.3 - RELEASE   -


 With contributions from (in alphabetic order):
   Ute Becker             : Parallelization
   Dmytro Bykov           : SCF Hessian
   Dmitry Ganyushin       : Spin-Orbit,Spin-Spin,Magnetic field MRCI
   Andreas Hansen         : Spin unrestricted coupled pair/coupled cluster methods
   Dimitrios Liakos       : Extrapolation schemes; parallel MDCI
   Robert Izsak           : Overlap fitted RIJCOSX, COSX-SCS-MP3
   Christian Kollmar      : KDIIS, OOCD, Brueckner-CCSD(T), CCSD density
   Simone Kossmann        : Meta GGA functionals, TD-DFT gradient, OOMP2, MP2 Hessian
   Taras Petrenko         : DFT Hessian,TD-DFT gradient, ASA and ECA modules, normal mode analysis, Resonance Raman, ABS, FL, XAS/XES, NRVS
   Christoph Reimann      : Effective Core Potentials
   Michael Roemelt        : Restricted open shell CIS
   Christoph Riplinger    : Improved optimizer, TS searches, QM/MM, DLPNO-CCSD
   Barbara Sandhoefer     : DKH picture change effects
   Igor Schapiro          : Molecular dynamics
   Kantharuban Sivalingam : CASSCF convergence, NEVPT2
   Boris Wezisla          : Elementary symmetry handling
   Frank Wennmohs         : Technical directorship


 We gratefully acknowledge several colleagues who have allowed us to
 interface, adapt or use parts of their codes:
   Stefan Grimme, W. Hujo, H. Kruse, T. Risthaus : VdW corrections, initial TS optimization,
                                                   DFT functionals, gCP
   Ed Valeev                                     : LibInt (2-el integral package), F12 methods
   Garnet Chan, S. Sharma, R. Olivares           : DMRG
   Ulf Ekstrom                                   : XCFun DFT Library
   Mihaly Kallay                                 : mrcc  (arbitrary order and MRCC methods)
   Andreas Klamt, Michael Diedenhofen            : otool_cosmo (COSMO solvation model)
   Frank Weinhold                                : gennbo (NPA and NBO analysis)
   Christopher J. Cramer and Donald G. Truhlar   : smd solvation model


 Your calculation uses the libint2 library for the computation of 2-el integrals
 For citations please refer to: http://libint.valeyev.net

 This ORCA versions uses:
   CBLAS   interface :  Fast vector & matrix operations
   LAPACKE interface :  Fast linear algebra routines
   SCALAPACK package :  Parallel linear algebra routines


Your calculation utilizes the basis: Ahlrichs-TZV
Cite in your paper:
H - Kr: A. Schaefer, H. Horn and R. Ahlrichs, J. Chem. Phys. 97, 2571 (1992).

The def2-TZV basis will be loaded
Cite in your paper:
 	F. Weigend, R. Ahlrichs, Phys. Chem. Chem. Phys. 2005, 7, 3297.

================================================================================
                                        WARNINGS
                       Please study these warnings very carefully!
================================================================================
Now building the actual basis set
WARNING: Geometry optimizations can change the point-group symmetry!

WARNING: Geometry Optimization
  ===> : Switching off AutoStart
         For restart on a previous wavefunction, please use MOREAD


INFO   : the flag for use of LIBINT has been found!

================================================================================
                                       INPUT FILE
================================================================================
NAME = 2178_+.inp
|  1> ! NORI PBE0 def2-TZVP UseSym TightOPT Freq TightSCF Grid3 FinalGrid5 XYZFile
|  2> % pal
|  3>     nprocs 8
|  4> end
|  5> %method
|  6>     SymThresh 5.0e-2
|  7> end
|  8> % geom 
|  9>     MaxIter 10
| 10> end 
| 11> % maxcore 2000
| 12> % output
| 13>     printlevel mini
| 14>     print[ P_Basis ] 0
| 15>     print[ P_SCFInfo ] 1
| 16>     print[ P_SCFIterInfo ] 1
| 17>     print[ P_OrbEn ] 0
| 18>     print[ P_Cartesian ] 0
| 19> end
| 20> % elprop
| 21>     Dipole false
| 22> end
| 23> *xyz 1 1
| 24>  C        0.9784344614    -0.1729463818     0.1264534273 
| 25>  C        2.4943158870     0.0103366135     0.1374595207 
| 26>  C        2.9699440764     0.9018011816    -0.9063563328 
| 27>  C        3.3483490768     1.6267299093    -1.7883007675 
| 28>  C        3.8099859818     2.5122609927    -2.8395384687 
| 29>  C        3.8156455173     3.9463769461    -2.3367034569 
| 30>  N        4.2949065657     4.8857579110    -3.4172385885 
| 31>  H        0.6810917367    -0.8567343545     0.9224503488 
| 32>  H        0.6413742654    -0.5884942150    -0.8240979742 
| 33>  H        0.4664351111     0.7773011669     0.2843099898 
| 34>  H        2.8227388846     0.4003002303     1.1062318043 
| 35>  H        2.9934263484    -0.9563834058     0.0148133887 
| 36>  H        4.8193944563     2.2226663384    -3.1591838066 
| 37>  H        3.1572728122     2.4256903723    -3.7180419200 
| 38>  H        2.8174220889     4.2765738337    -2.0513270750 
| 39>  H        4.4872852411     4.0726982113    -1.4881108883 
| 40>  H        3.6917724933     4.8353108217    -4.2414488905 
| 41>  H        5.2427246925     4.6464428188    -3.7168785518 
| 42>  H        4.3047503031     5.8559410096    -3.0962817589 
| 43> *
| 44> 
| 45>                          ****END OF INPUT****
================================================================================

The point group is C1 - hence turning off symmetry
If this is a round-off problem, please increase the symmetry
        detection tolerance (%method SymThresh)


                       *****************************
                       * Geometry Optimization Run *
                       *****************************

Geometry optimization settings:
Update method            Update   .... BFGS
Choice of coordinates    CoordSys .... Redundant Internals
Initial Hessian          InHess   .... Almoef's Model

Convergence Tolerances:
Energy Change            TolE     ....  1.0000e-06 Eh
Max. Gradient            TolMAXG  ....  1.0000e-04 Eh/bohr
RMS Gradient             TolRMSG  ....  3.0000e-05 Eh/bohr
Max. Displacement        TolMAXD  ....  1.0000e-03 bohr
RMS Displacement         TolRMSD  ....  6.0000e-04 bohr

------------------------------------------------------------------------------
                        ORCA OPTIMIZATION COORDINATE SETUP
------------------------------------------------------------------------------

The optimization will be done in new redundant internal coordinates
Making redundant internal coordinates   ...  (new redundants) done
Evaluating the initial hessian          ...  (Almloef) done
Evaluating the coordinates              ...  done
Calculating the B-matrix                .... done
Calculating the G-matrix                .... done
Diagonalizing the G-matrix              .... done
Small eigenvalue found = 1.344e-02
Small eigenvalue found = 2.041e-02
The first mode is                       ....   37
The number of degrees of freedom        ....   51

    -----------------------------------------------------------------
                    Redundant Internal Coordinates


    -----------------------------------------------------------------
         Definition                    Initial Value    Approx d2E/dq
    -----------------------------------------------------------------
      1. B(C   1,C   0)                  1.5270         0.377769   
      2. B(C   2,C   1)                  1.4528         0.496163   
      3. B(C   3,C   2)                  1.2027         1.243169   
      4. B(C   4,C   3)                  1.4500         0.501281   
      5. B(C   5,C   4)                  1.5197         0.387946   
      6. B(N   6,C   5)                  1.5099         0.360282   
      7. B(H   7,C   0)                  1.0907         0.359197   
      8. B(H   8,C   0)                  1.0908         0.359048   
      9. B(H   9,C   0)                  1.0909         0.358930   
     10. B(H  10,C   1)                  1.0947         0.353885   
     11. B(H  11,C   1)                  1.0949         0.353738   
     12. B(H  12,C   4)                  1.0977         0.350058   
     13. B(H  13,C   4)                  1.0979         0.349850   
     14. B(H  14,C   5)                  1.0895         0.360817   
     15. B(H  15,C   5)                  1.0896         0.360667   
     16. B(H  16,N   6)                  1.0226         0.413189   
     17. B(H  17,N   6)                  1.0225         0.413355   
     18. B(H  18,N   6)                  1.0219         0.414135   
     19. A(C   1,C   0,H   9)          111.1209         0.324740   
     20. A(C   1,C   0,H   8)          111.0246         0.324758   
     21. A(H   7,C   0,H   9)          108.2130         0.290576   
     22. A(C   1,C   0,H   7)          109.9155         0.324780   
     23. A(H   7,C   0,H   8)          108.2344         0.290591   
     24. A(H   8,C   0,H   9)          108.2350         0.290557   
     25. A(H  10,C   1,H  11)          106.0751         0.289236   
     26. A(C   0,C   1,H  11)          110.2289         0.323964   
     27. A(C   0,C   1,H  10)          110.3015         0.323986   
     28. A(C   2,C   1,H  11)          108.1849         0.338919   
     29. A(C   0,C   1,C   2)          113.1724         0.382292   
     30. A(C   2,C   1,H  10)          108.6041         0.338943   
     31. L(C   1,C   2,C   3,C   0, 2) 181.6275         0.473048   
     32. L(C   1,C   2,C   3,C   0, 1) 179.1165         0.473048   
     33. L(C   2,C   3,C   4,C   5, 2) 179.4976         0.473941   
     34. L(C   2,C   3,C   4,C   5, 1) 179.3740         0.473941   
     35. A(C   3,C   4,C   5)          109.7322         0.384748   
     36. A(C   5,C   4,H  13)          109.9615         0.324792   
     37. A(C   3,C   4,H  13)          110.0419         0.338875   
     38. A(C   5,C   4,H  12)          109.9916         0.324823   
     39. A(C   3,C   4,H  12)          110.0457         0.338908   
     40. A(H  12,C   4,H  13)          107.0314         0.288245   
     41. A(H  14,C   5,H  15)          109.0053         0.291002   
     42. A(C   4,C   5,N   6)          110.5796         0.361187   
     43. A(N   6,C   5,H  15)          106.8325         0.320559   
     44. A(C   4,C   5,H  15)          111.6783         0.326422   
     45. A(N   6,C   5,H  14)          106.8419         0.320581   
     46. A(C   4,C   5,H  14)          111.6705         0.326445   
     47. A(H  16,N   6,H  17)          107.3981         0.298846   
     48. A(C   5,N   6,H  17)          110.9992         0.325034   
     49. A(C   5,N   6,H  16)          111.0336         0.325012   
     50. A(H  17,N   6,H  18)          107.7771         0.298955   
     51. A(H  16,N   6,H  18)          107.7979         0.298935   
     52. A(C   5,N   6,H  18)          111.6508         0.325134   
     53. D(H  10,C   1,C   0,H   9)     61.1184         0.011381   
     54. D(H  11,C   1,C   0,H   9)    177.9242         0.011381   
     55. D(H  11,C   1,C   0,H   8)    -61.5552         0.011381   
     56. D(H  10,C   1,C   0,H   7)    -58.6386         0.011381   
     57. D(C   2,C   1,C   0,H   9)    -60.7759         0.011381   
     58. D(H  10,C   1,C   0,H   8)   -178.3610         0.011381   
     59. D(C   2,C   1,C   0,H   8)     59.7447         0.011381   
     60. D(C   2,C   1,C   0,H   7)    179.4671         0.011381   
     61. D(H  11,C   1,C   0,H   7)     58.1672         0.011381   
     62. D(H  12,C   4,C   1,H  10)     87.5715         0.001500   
     63. D(C   5,C   4,C   1,H  11)   -148.6059         0.001500   
     64. D(C   5,C   4,C   1,H  10)    -33.6350         0.001500   
     65. D(C   5,C   4,C   1,C   0)     89.3065         0.001500   
     66. D(H  12,C   4,C   1,H  11)    -27.3994         0.001500   
     67. D(H  13,C   4,C   1,H  11)     90.3576         0.001500   
     68. D(H  13,C   4,C   1,H  10)   -154.6715         0.001500   
     69. D(H  13,C   4,C   1,C   0)    -31.7300         0.001500   
     70. D(H  12,C   4,C   1,C   0)   -149.4870         0.001500   
     71. D(H  15,C   5,C   4,H  12)    -60.0669         0.011971   
     72. D(H  15,C   5,C   4,C   3)     61.1309         0.011971   
     73. D(H  14,C   5,C   4,H  13)     59.9578         0.011971   
     74. D(H  14,C   5,C   4,H  12)    177.5862         0.011971   
     75. D(H  14,C   5,C   4,C   3)    -61.2160         0.011971   
     76. D(N   6,C   5,C   4,H  13)    -58.8721         0.011971   
     77. D(N   6,C   5,C   4,H  12)     58.7563         0.011971   
     78. D(H  15,C   5,C   4,H  13)   -177.6952         0.011971   
     79. D(N   6,C   5,C   4,C   3)    179.9541         0.011971   
     80. D(H  17,N   6,C   5,C   4)    -59.7463         0.011932   
     81. D(H  16,N   6,C   5,H  15)   -178.6324         0.011932   
     82. D(H  16,N   6,C   5,H  14)    -62.0770         0.011932   
     83. D(H  16,N   6,C   5,C   4)     59.6435         0.011932   
     84. D(H  18,N   6,C   5,H  15)    -58.3023         0.011932   
     85. D(H  18,N   6,C   5,H  14)     58.2531         0.011932   
     86. D(H  18,N   6,C   5,C   4)    179.9736         0.011932   
     87. D(H  17,N   6,C   5,H  15)     61.9779         0.011932   
     88. D(H  17,N   6,C   5,H  14)    178.5332         0.011932   
    -----------------------------------------------------------------

Number of atoms                         .... 19
Number of degrees of freedom            .... 88

         *************************************************************
         *                GEOMETRY OPTIMIZATION CYCLE   1            *
         *************************************************************


           ************************************************************
           *        Program running with 8 parallel MPI-processes     *
           *              working on a common directory               *
           ************************************************************
           ************************************************************
           *              Shut down parallel processing               *
           ************************************************************


           ************************************************************
           *        Program running with 8 parallel MPI-processes     *
           *              working on a common directory               *
           ************************************************************
------------
SCF SETTINGS
------------
Hamiltonian:
 Density Functional     Method          .... DFT(GTOs)
 Exchange Functional    Exchange        .... PBE
   PBE kappa parameter  XKappa          ....  0.804000
 Correlation Functional Correlation     .... PBE
 LDA part of GGA corr.  LDAOpt          .... PW91-LDA
 Gradients option       PostSCFGGA      .... off
 Hybrid DFT is turned on
   Fraction HF Exchange ScalHFX         ....  0.250000
   Scaling of DF-GGA-X  ScalDFX         ....  0.750000
   Scaling of DF-GGA-C  ScalDFC         ....  1.000000
   Scaling of DF-LDA-C  ScalLDAC        ....  1.000000
   Perturbative correction              ....  0.000000
   NL short-range parameter             ....  6.900000


General Settings:
 Integral files         IntName         .... 2178_+
 Hartree-Fock type      HFTyp           .... RHF
 Total Charge           Charge          ....    1
 Multiplicity           Mult            ....    1
 Number of Electrons    NEL             ....   54
 Basis Dimension        Dim             ....  289
 Nuclear Repulsion      ENuc            ....    279.1283326070 Eh

Convergence Acceleration:
 DIIS                   CNVDIIS         .... on
   Start iteration      DIISMaxIt       ....    12
   Startup error        DIISStart       ....  0.200000
   # of expansion vecs  DIISMaxEq       ....     5
   Bias factor          DIISBfac        ....   1.050
   Max. coefficient     DIISMaxC        ....  10.000
 Newton-Raphson         CNVNR           .... off
 SOSCF                  CNVSOSCF        .... on
   Start iteration      SOSCFMaxIt      ....   150
   Startup grad/error   SOSCFStart      ....  0.003300
 Level Shifting         CNVShift        .... on
   Level shift para.    LevelShift      ....    0.2500
   Turn off err/grad.   ShiftErr        ....    0.0010
 Zerner damping         CNVZerner       .... off
 Static damping         CNVDamp         .... on
   Fraction old density DampFac         ....    0.7000
   Max. Damping (<1)    DampMax         ....    0.9800
   Min. Damping (>=0)   DampMin         ....    0.0000
   Turn off err/grad.   DampErr         ....    0.1000
 Fernandez-Rico         CNVRico         .... off

SCF Procedure:
 Maximum # iterations   MaxIter         ....   125
 SCF integral mode      SCFMode         .... Direct
   Integral package                     .... LIBINT
 Reset frequeny         DirectResetFreq ....    20
 Integral Threshold     Thresh          ....  2.500e-11 Eh
 Primitive CutOff       TCut            ....  2.500e-12 Eh

Convergence Tolerance:
 Convergence Check Mode ConvCheckMode   .... Total+1el-Energy
 Energy Change          TolE            ....  1.000e-08 Eh
 1-El. energy change                    ....  1.000e-05 Eh
 Orbital Gradient       TolG            ....  1.000e-05
 Orbital Rotation angle TolX            ....  1.000e-05
 DIIS Error             TolErr          ....  5.000e-07


Diagonalization of the overlap matrix:
Smallest eigenvalue                        ... 1.030e-05
Time for diagonalization                   ...    0.261 sec
Threshold for overlap eigenvalues          ... 1.000e-08
Number of eigenvalues below threshold      ... 0
Time for construction of square roots      ...    0.032 sec
Total time needed                          ...    0.294 sec

-------------------
DFT GRID GENERATION
-------------------

General Integration Accuracy     IntAcc      ...  4.340
Radial Grid Type                 RadialGrid  ... Gauss-Chebyshev
Angular Grid (max. acc.)         AngularGrid ... Lebedev-194
Angular grid pruning method      GridPruning ... 3 (G Style)
Weight generation scheme         WeightScheme... Becke
Basis function cutoff            BFCut       ...    1.0000e-11
Integration weight cutoff        WCut        ...    1.0000e-14
Grids for H and He will be reduced by one unit

# of grid points (after initial pruning)     ...  41338 (   0.0 sec)
# of grid points (after weights+screening)   ...  38250 (   0.1 sec)
nearest neighbour list constructed           ...    0.0 sec
Grid point re-assignment to atoms done       ...    0.0 sec
Grid point division into batches done        ...    0.1 sec
Reduced shell lists constructed in    0.1 sec

Total number of grid points                  ...    38250
Total number of batches                      ...      605
Average number of points per batch           ...       63
Average number of grid points per atom       ...     2013
Average number of shells per batch           ...    83.30 (66.64%)
Average number of basis functions per batch  ...   196.31 (67.93%)
Average number of large shells per batch     ...    65.60 (78.75%)
Average number of large basis fcns per batch ...   157.36 (80.16%)
Maximum spatial batch extension              ...   4.97,  4.76,  2.68 au
Average spatial batch extension              ...   0.18,  0.18,  0.16 au

Time for grid setup =    0.598 sec

Loading Hartree-Fock densities                     ... done
Calculating cut-offs                               ... done
Setting up the integral package                    ... done
Initializing the effective Hamiltonian             ... done
Starting the Coulomb interaction                   ... done (   0.0 sec)
Reading the grid                                   ... done
Mapping shells                                     ... done
Starting the XC term evaluation                    ... done (   0.4 sec)
  promolecular density results
     # of electrons  =     54.992694401
     EX              =    -40.772427508
     EC              =     -1.776133300
     EX+EC           =    -42.548560808
Transforming the Hamiltonian                       ... done (   0.0 sec)
Diagonalizing the Hamiltonian                      ... done (   0.2 sec)
Back transforming the eigenvectors                 ... done (   0.0 sec)
Now organizing SCF variables                       ... done
--------------
SCF ITERATIONS
--------------
ITER       Energy         Delta-E        Max-DP      RMS-DP      [F,P]     Damp
               ***  Starting incremental Fock matrix formation  ***
  0   -289.8657751524   0.000000000000 0.11445850  0.00118560  0.1721930 0.7000
  1   -289.9505801614  -0.084805008997 0.05935521  0.00089749  0.0917901 0.7000
                               ***Turning on DIIS***
  2   -289.9903183689  -0.039738207539 0.10692215  0.00187693  0.0362476 0.0000
  3   -290.0471712407  -0.056852871751 0.02545879  0.00060417  0.0500211 0.0000
  4   -290.0609886671  -0.013817426398 0.01374281  0.00027925  0.0086974 0.0000
  5   -290.0614872176  -0.000498550537 0.00814690  0.00013513  0.0035999 0.0000
                      *** Initiating the SOSCF procedure ***
                           *** Shutting down DIIS ***
                      *** Re-Reading the Fockian *** 
                      *** Removing any level shift *** 
ITER      Energy       Delta-E        Grad      Rot      Max-DP    RMS-DP
  6   -290.06153851  -0.0000512916  0.000301  0.000301  0.003117  0.000058
               *** Restarting incremental Fock matrix formation ***
  7   -290.06154301  -0.0000044988  0.000112  0.000296  0.002280  0.000039
  8   -290.06154334  -0.0000003272  0.000072  0.000117  0.000381  0.000008
  9   -290.06154368  -0.0000003454  0.000038  0.000087  0.000363  0.000006
 10   -290.06154365   0.0000000300  0.000055  0.000056  0.000049  0.000001
 11   -290.06154371  -0.0000000599  0.000004  0.000008  0.000082  0.000001
 12   -290.06154371   0.0000000012  0.000004  0.000003  0.000024  0.000000
                  ***Gradient check signals convergence***
              ***Rediagonalizing the Fockian in SOSCF/NRSCF***

               *****************************************************
               *                     SUCCESS                       *
               *           SCF CONVERGED AFTER  13 CYCLES          *
               *****************************************************

Setting up the final grid:

General Integration Accuracy     IntAcc      ...  5.010
Radial Grid Type                 RadialGrid  ... Gauss-Chebyshev
Angular Grid (max. acc.)         AngularGrid ... Lebedev-434
Angular grid pruning method      GridPruning ... 3 (G Style)
Weight generation scheme         WeightScheme... Becke
Basis function cutoff            BFCut       ...    1.0000e-11
Integration weight cutoff        WCut        ...    1.0000e-14
Grids for H and He will be reduced by one unit

# of grid points (after initial pruning)     ... 155082 (   0.0 sec)
# of grid points (after weights+screening)   ... 141950 (   0.5 sec)
nearest neighbour list constructed           ...    0.0 sec
Grid point re-assignment to atoms done       ...    0.0 sec
Grid point division into batches done        ...    0.8 sec
Reduced shell lists constructed in    1.1 sec

Total number of grid points                  ...   141950
Total number of batches                      ...     2227
Average number of points per batch           ...       63
Average number of grid points per atom       ...     7471
Average number of shells per batch           ...    81.97 (65.57%)
Average number of basis functions per batch  ...   193.54 (66.97%)
Average number of large shells per batch     ...    64.56 (78.77%)
Average number of large basis fcns per batch ...   154.76 (79.96%)
Maximum spatial batch extension              ...   5.32,  4.54,  2.36 au
Average spatial batch extension              ...   0.12,  0.12,  0.11 au

Final grid set up in    2.5 sec
Final integration                            ... done (   0.8 sec)
Change in XC energy                          ...     0.000365495
Integrated number of electrons               ...    53.999988780
Previous integrated no of electrons          ...    53.999483218
Total Energy       :         -290.06117821 Eh           -7892.96593 eV
  Last Energy change         ...   -8.9079e-10  Tolerance :   1.0000e-08
  Last MAX-Density change    ...    2.1393e-05  Tolerance :   1.0000e-07
             **** THE GBW FILE WAS UPDATED (2178_+.gbw) ****
             **** DENSITY FILE WAS UPDATED (2178_+.scfp.tmp) ****
             **** ENERGY FILE WAS UPDATED (2178_+.en.tmp) ****
Total SCF time: 0 days 0 hours 1 min 20 sec 
           ************************************************************
           *              Shut down parallel processing               *
           ************************************************************

-------------------------   --------------------
FINAL SINGLE POINT ENERGY      -290.061178214838
-------------------------   --------------------



           ************************************************************
           *        Program running with 8 parallel MPI-processes     *
           *              working on a common directory               *
           ************************************************************
------------------------------------------------------------------------------
                         ORCA SCF GRADIENT CALCULATION
------------------------------------------------------------------------------

Gradient of the Kohn-Sham DFT energy:
Kohn-Sham wavefunction type      ... RKS
Hartree-Fock exchange scaling    ...    0.250
Number of operators              ...    1
Number of atoms                  ...   19
Basis set dimensions             ...  289
Integral neglect threshold       ... 2.5e-11
Integral primitive cutoff        ... 2.5e-12

Nuclear repulsion gradient       ... done
One Electron Gradient            ... done
Pre-screening matrix             ... done
Starting the two electron gradient:
Two electron gradient done
Exchange-correlation gradient    ... done

------------------
CARTESIAN GRADIENT
------------------

   1   C   :   -0.000009761    0.000119152    0.000210538
   2   C   :    0.000023486   -0.000062370   -0.000064630
   3   C   :    0.000057046    0.000054322   -0.000314257
   4   C   :    0.000004326   -0.000016305    0.000230445
   5   C   :   -0.000171930    0.000049163    0.000033639
   6   C   :    0.000104843    0.000038922   -0.000137577
   7   N   :   -0.000031655   -0.000040537    0.000028785
   8   H   :   -0.000023918   -0.000010693   -0.000042577
   9   H   :    0.000069618    0.000001987    0.000032917
  10   H   :   -0.000041248   -0.000100745   -0.000051894
  11   H   :   -0.000058303   -0.000046998    0.000003314
  12   H   :   -0.000010111    0.000067424    0.000013203
  13   H   :    0.000129754    0.000003003   -0.000036197
  14   H   :    0.000002164   -0.000018913   -0.000011192
  15   H   :   -0.000130574   -0.000004350    0.000040862
  16   H   :    0.000034095   -0.000022570    0.000018221
  17   H   :   -0.000032093   -0.000034184    0.000043102
  18   H   :    0.000085798   -0.000010799   -0.000018713
  19   H   :   -0.000001537    0.000034491    0.000022009

Norm of the cartesian gradient     ...    0.000616418
RMS gradient                       ...    0.000081647
MAX gradient                       ...    0.000314257

-------
TIMINGS
-------

Total SCF gradient time            ...       28.415 sec

One electron gradient       ....       0.194 sec  (  0.7%)
Prescreening matrices       ....       0.462 sec  (  1.6%)
Two electron gradient       ....      22.649 sec  ( 79.7%)
XC gradient                 ....       3.258 sec  ( 11.5%)
           ************************************************************
           *              Shut down parallel processing               *
           ************************************************************
------------------------------------------------------------------------------
                         ORCA GEOMETRY RELAXATION STEP
------------------------------------------------------------------------------

Reading the OPT-File                    .... done
Getting information on internals        .... done
Copying old internal coords+grads       .... done
Making the new internal coordinates     .... (new redundants).... done
Validating the new internal coordinates .... (new redundants).... done
Calculating the B-matrix                .... done
Calculating the G,G- and P matrices     .... done
Transforming gradient to internals      .... done
Projecting the internal gradient        .... done
Number of atoms                         ....  19
Number of internal coordinates          ....  88
Current Energy                          ....  -290.061178215 Eh
Current gradient norm                   ....     0.000616418 Eh/bohr
Maximum allowed component of the step   ....  0.300
Current trust radius                    ....  0.300
Evaluating the initial hessian          ....  (Almloef) done
Projecting the Hessian                  .... done
Forming the augmented Hessian           .... done
Diagonalizing the augmented Hessian     .... done
Last element of RFO vector              ....  0.999618343
Lowest eigenvalues of augmented Hessian:
 -0.000001918  0.001501131  0.011381089  0.011931904  0.011970788
Length of the computed step             ....  0.027636036
The final length of the internal step   ....  0.027636036
Converting the step to cartesian space:
 Initial RMS(Int)=    0.0029460113
Transforming coordinates:
 Iter   0:  RMS(Cart)=    0.0060452276 RMS(Int)=    0.0029460362
 Iter   1:  RMS(Cart)=    0.0000186038 RMS(Int)=    0.0000098403
 Iter   2:  RMS(Cart)=    0.0000037294 RMS(Int)=    0.0000011783
 Iter   3:  RMS(Cart)=    0.0000018534 RMS(Int)=    0.0000005818
 Iter   4:  RMS(Cart)=    0.0000009159 RMS(Int)=    0.0000002874
 Iter   5:  RMS(Cart)=    0.0000004526 RMS(Int)=    0.0000001420
 Iter   6:  RMS(Cart)=    0.0000002236 RMS(Int)=    0.0000000701
 Iter   7:  RMS(Cart)=    0.0000001105 RMS(Int)=    0.0000000346
 Iter   8:  RMS(Cart)=    0.0000000546 RMS(Int)=    0.0000000171
done
Storing new coordinates                 .... done

                                .--------------------.
          ----------------------|Geometry convergence|---------------------
          Item                value                 Tolerance   Converged
          -----------------------------------------------------------------
          RMS gradient        0.00005410            0.00003000      NO
          MAX gradient        0.00021157            0.00010000      NO
          RMS step            0.00294601            0.00060000      NO
          MAX step            0.00948953            0.00100000      NO
          ....................................................
          Max(Bonds)      0.0002      Max(Angles)    0.03
          Max(Dihed)        0.54      Max(Improp)    0.00
          -----------------------------------------------------------------

The optimization has not yet converged - more geometry cycles are needed


    ---------------------------------------------------------------------------
                         Redundant Internal Coordinates
                            (Angstroem and degrees)

        Definition                    Value    dE/dq     Step     New-Value
    ----------------------------------------------------------------------------
     1. B(C   1,C   0)                1.5270 -0.000073  0.0001    1.5271   
     2. B(C   2,C   1)                1.4528 -0.000109  0.0001    1.4529   
     3. B(C   3,C   2)                1.2027  0.000212 -0.0001    1.2026   
     4. B(C   4,C   3)                1.4500 -0.000013  0.0000    1.4500   
     5. B(C   5,C   4)                1.5197 -0.000018  0.0000    1.5197   
     6. B(N   6,C   5)                1.5099  0.000085 -0.0001    1.5097   
     7. B(H   7,C   0)                1.0907  0.000038 -0.0001    1.0906   
     8. B(H   8,C   0)                1.0908  0.000005 -0.0000    1.0908   
     9. B(H   9,C   0)                1.0909 -0.000098  0.0001    1.0910   
    10. B(H  10,C   1)                1.0947 -0.000041  0.0001    1.0948   
    11. B(H  11,C   1)                1.0949 -0.000024  0.0000    1.0949   
    12. B(H  12,C   4)                1.0977 -0.000134  0.0002    1.0979   
    13. B(H  13,C   4)                1.0979  0.000016 -0.0000    1.0978   
    14. B(H  14,C   5)                1.0895 -0.000135  0.0002    1.0897   
    15. B(H  15,C   5)                1.0896 -0.000038  0.0001    1.0896   
    16. B(H  16,N   6)                1.0226  0.000022 -0.0000    1.0225   
    17. B(H  17,N   6)                1.0225 -0.000086  0.0001    1.0226   
    18. B(H  18,N   6)                1.0219  0.000037 -0.0000    1.0219   
    19. A(C   1,C   0,H   9)          111.12  0.000070   -0.01    111.11   
    20. A(C   1,C   0,H   8)          111.02  0.000047   -0.01    111.02   
    21. A(H   7,C   0,H   9)          108.21  0.000001   -0.01    108.21   
    22. A(C   1,C   0,H   7)          109.92 -0.000032    0.00    109.92   
    23. A(H   7,C   0,H   8)          108.23 -0.000007    0.00    108.24   
    24. A(H   8,C   0,H   9)          108.24 -0.000083    0.02    108.26   
    25. A(H  10,C   1,H  11)          106.08 -0.000072    0.01    106.09   
    26. A(C   0,C   1,H  11)          110.23  0.000111   -0.02    110.21   
    27. A(C   0,C   1,H  10)          110.30  0.000062   -0.01    110.29   
    28. A(C   2,C   1,H  11)          108.18  0.000038   -0.01    108.18   
    29. A(C   0,C   1,C   2)          113.17 -0.000179    0.03    113.20   
    30. A(C   2,C   1,H  10)          108.60  0.000046   -0.00    108.60   
    31. L(C   1,C   2,C   3,C   0, 2) 181.63  0.000015   -0.00    181.63   
    32. L(C   1,C   2,C   3,C   0, 1) 179.12 -0.000093    0.01    179.13   
    33. L(C   2,C   3,C   4,C   5, 2) 179.50  0.000026   -0.00    179.49   
    34. L(C   2,C   3,C   4,C   5, 1) 179.37  0.000134   -0.02    179.35   
    35. A(C   3,C   4,C   5)          109.73  0.000062   -0.01    109.72   
    36. A(C   5,C   4,H  13)          109.96 -0.000036    0.01    109.97   
    37. A(C   3,C   4,H  13)          110.04 -0.000028    0.01    110.06   
    38. A(C   5,C   4,H  12)          109.99 -0.000020   -0.01    109.98   
    39. A(C   3,C   4,H  12)          110.05 -0.000006   -0.00    110.04   
    40. A(H  12,C   4,H  13)          107.03  0.000025    0.01    107.04   
    41. A(H  14,C   5,H  15)          109.01 -0.000012    0.00    109.01   
    42. A(C   4,C   5,N   6)          110.58 -0.000027    0.00    110.58   
    43. A(N   6,C   5,H  15)          106.83  0.000004   -0.00    106.83   
    44. A(C   4,C   5,H  15)          111.68  0.000020   -0.01    111.67   
    45. A(N   6,C   5,H  14)          106.84 -0.000005    0.00    106.85   
    46. A(C   4,C   5,H  14)          111.67  0.000018   -0.00    111.67   
    47. A(H  16,N   6,H  17)          107.40 -0.000043    0.01    107.41   
    48. A(C   5,N   6,H  17)          111.00 -0.000003    0.00    111.00   
    49. A(C   5,N   6,H  16)          111.03  0.000064   -0.01    111.02   
    50. A(H  17,N   6,H  18)          107.78 -0.000002    0.00    107.78   
    51. A(H  16,N   6,H  18)          107.80 -0.000010   -0.00    107.79   
    52. A(C   5,N   6,H  18)          111.65 -0.000009    0.00    111.65   
    53. D(H  10,C   1,C   0,H   9)     61.12 -0.000005    0.05     61.16   
    54. D(H  11,C   1,C   0,H   9)    177.92  0.000010    0.04    177.97   
    55. D(H  11,C   1,C   0,H   8)    -61.56 -0.000016    0.06    -61.50   
    56. D(H  10,C   1,C   0,H   7)    -58.64 -0.000030    0.06    -58.58   
    57. D(C   2,C   1,C   0,H   9)    -60.78  0.000016    0.04    -60.74   
    58. D(H  10,C   1,C   0,H   8)   -178.36 -0.000031    0.06   -178.30   
    59. D(C   2,C   1,C   0,H   8)     59.74 -0.000010    0.05     59.80   
    60. D(C   2,C   1,C   0,H   7)    179.47 -0.000009    0.05    179.52   
    61. D(H  11,C   1,C   0,H   7)     58.17 -0.000015    0.05     58.22   
    62. D(H  12,C   4,C   1,H  10)     87.57  0.000018    0.51     88.08   
    63. D(C   5,C   4,C   1,H  11)   -148.61 -0.000037    0.54   -148.07   
    64. D(C   5,C   4,C   1,H  10)    -33.63 -0.000042    0.54    -33.09   
    65. D(C   5,C   4,C   1,C   0)     89.31 -0.000039    0.54     89.85   
    66. D(H  12,C   4,C   1,H  11)    -27.40  0.000024    0.50    -26.90   
    67. D(H  13,C   4,C   1,H  11)     90.36 -0.000021    0.52     90.88   
    68. D(H  13,C   4,C   1,H  10)   -154.67 -0.000027    0.53   -154.15   
    69. D(H  13,C   4,C   1,C   0)    -31.73 -0.000023    0.53    -31.20   
    70. D(H  12,C   4,C   1,C   0)   -149.49  0.000022    0.51   -148.98   
    71. D(H  15,C   5,C   4,H  12)    -60.07 -0.000000   -0.01    -60.08   
    72. D(H  15,C   5,C   4,C   3)     61.13  0.000020   -0.03     61.10   
    73. D(H  14,C   5,C   4,H  13)     59.96 -0.000009   -0.01     59.95   
    74. D(H  14,C   5,C   4,H  12)    177.59 -0.000012   -0.00    177.58   
    75. D(H  14,C   5,C   4,C   3)    -61.22  0.000008   -0.03    -61.24   
    76. D(N   6,C   5,C   4,H  13)    -58.87  0.000003   -0.02    -58.89   
    77. D(N   6,C   5,C   4,H  12)     58.76  0.000000   -0.01     58.75   
    78. D(H  15,C   5,C   4,H  13)   -177.70  0.000003   -0.02   -177.71   
    79. D(N   6,C   5,C   4,C   3)    179.95  0.000020   -0.03    179.92   
    80. D(H  17,N   6,C   5,C   4)    -59.75 -0.000001   -0.00    -59.75   
    81. D(H  16,N   6,C   5,H  15)   -178.63 -0.000004    0.00   -178.63   
    82. D(H  16,N   6,C   5,H  14)    -62.08 -0.000018    0.01    -62.07   
    83. D(H  16,N   6,C   5,C   4)     59.64 -0.000015    0.01     59.65   
    84. D(H  18,N   6,C   5,H  15)    -58.30  0.000021   -0.01    -58.31   
    85. D(H  18,N   6,C   5,H  14)     58.25  0.000006   -0.01     58.25   
    86. D(H  18,N   6,C   5,C   4)    179.97  0.000009   -0.01    179.97   
    87. D(H  17,N   6,C   5,H  15)     61.98  0.000010   -0.01     61.97   
    88. D(H  17,N   6,C   5,H  14)    178.53 -0.000004   -0.00    178.53   
    ----------------------------------------------------------------------------

         *************************************************************
         *                GEOMETRY OPTIMIZATION CYCLE   2            *
         *************************************************************
---------------------------------
CARTESIAN COORDINATES (ANGSTROEM)
---------------------------------
  C      1.113916   -0.002595   -3.370976
  C     -0.189480    0.459203   -2.723038
  C     -0.304564    0.069810   -1.328066
  C     -0.392301   -0.277263   -0.179952
  C     -0.497707   -0.678447    1.209420
  C      0.099438    0.397997    2.100669
  N     -0.001917    0.000613    3.553638
  H      1.140504    0.309552   -4.415642
  H      1.204232   -1.089107   -3.336983
  H      1.978784    0.428284   -2.864327
  H     -0.282053    1.547998   -2.790459
  H     -1.047534    0.047645   -3.264464
  H     -1.550231   -0.843700    1.474510
  H      0.026976   -1.629753    1.367435
  H      1.156834    0.554561    1.889122
  H     -0.427706    1.345783    1.995266
  H      0.494460   -0.875858    3.729676
  H     -0.976941   -0.139517    3.828107
  H      0.395852    0.713647    4.168156

----------------------------
CARTESIAN COORDINATES (A.U.)
----------------------------
  NO LB      ZA    FRAG    MASS        X           Y           Z
   0 C     6.0000    0    12.011          2.104996813543935         -0.004903067130229         -6.370221033283183
   1 C     6.0000    0    12.011         -0.358065389389471          0.867768853590181         -5.145796336647680
   2 C     6.0000    0    12.011         -0.575542545031973          0.131922125112562         -2.509680111687955
   3 C     6.0000    0    12.011         -0.741342201548366         -0.523950403640694         -0.340060457260220
   4 C     6.0000    0    12.011         -0.940529357295713         -1.282078133843077          2.285473051286366
   5 C     6.0000    0    12.011          0.187910627948700          0.752106148445815          3.969688451006251
   6 N     7.0000    0    14.007         -0.003622527875203          0.001158775944298          6.715403435840837
   7 H     1.0000    0     1.008          2.155239294637668          0.584968976508573         -8.344353368629077
   8 H     1.0000    0     1.008          2.275668837156654         -2.058114387823406         -6.305984755122644
   9 H     1.0000    0     1.008          3.739360078124895          0.809340375634536         -5.412792719768174
  10 H     1.0000    0     1.008         -0.533002383944264          2.925291927819328         -5.273203567146965
  11 H     1.0000    0     1.008         -1.979552631666773          0.090035268007934         -6.168942670537411
  12 H     1.0000    0     1.008         -2.929511713729626         -1.594361479703172          2.786419177518237
  13 H     1.0000    0     1.008          0.050976565776868         -3.079786552376206          2.584077162387654
  14 H     1.0000    0     1.008          2.186099848855319          1.047967731255736          3.569923287091333
  15 H     1.0000    0     1.008         -0.808247185096500          2.543162033501623          3.770506598843291
  16 H     1.0000    0     1.008          0.934394345702029         -1.655131001066641          7.048065516329083
  17 H     1.0000    0     1.008         -1.846150110773696         -0.263649300753142          7.234074359083167
  18 H     1.0000    0     1.008          0.748052813040030          1.348596867591259          7.876673913954444

--------------------------------
INTERNAL COORDINATES (ANGSTROEM)
--------------------------------
 C      0   0   0   0.000000     0.000     0.000
 C      1   0   0   1.527063     0.000     0.000
 C      2   1   0   1.452866   113.201     0.000
 C      3   2   1   1.202631   178.728   312.544
 C      4   3   2   1.449971   179.288   162.357
 C      5   4   3   1.519749   109.718   334.827
 N      6   5   4   1.509738   110.584   179.921
 H      1   2   3   1.090628   109.918   179.517
 H      1   2   3   1.090790   111.019    59.796
 H      1   2   3   1.091030   111.108   299.261
 H      2   1   3   1.094801   110.291   121.903
 H      2   1   3   1.094888   110.207   238.705
 H      5   4   3   1.097902   110.041    95.967
 H      5   4   3   1.097836   110.055   213.688
 H      6   5   4   1.089656   111.667   298.757
 H      6   5   4   1.089628   111.671    61.100
 H      7   6   5   1.022536   111.021    59.650
 H      7   6   5   1.022566   111.002   300.253
 H      7   6   5   1.021895   111.651   179.967

---------------------------
INTERNAL COORDINATES (A.U.)
---------------------------
 C      0   0   0   0.000000     0.000     0.000
 C      1   0   0   2.885732     0.000     0.000
 C      2   1   0   2.745519   113.201     0.000
 C      3   2   1   2.272643   178.728   312.544
 C      4   3   2   2.740047   179.288   162.357
 C      5   4   3   2.871909   109.718   334.827
 N      6   5   4   2.852991   110.584   179.921
 H      1   2   3   2.060988   109.918   179.517
 H      1   2   3   2.061294   111.019    59.796
 H      1   2   3   2.061748   111.108   299.261
 H      2   1   3   2.068873   110.291   121.903
 H      2   1   3   2.069038   110.207   238.705
 H      5   4   3   2.074733   110.041    95.967
 H      5   4   3   2.074609   110.055   213.688
 H      6   5   4   2.059152   111.667   298.757
 H      6   5   4   2.059098   111.671    61.100
 H      7   6   5   1.932314   111.021    59.650
 H      7   6   5   1.932369   111.002   300.253
 H      7   6   5   1.931102   111.651   179.967



           ************************************************************
           *        Program running with 8 parallel MPI-processes     *
           *              working on a common directory               *
           ************************************************************
           ************************************************************
           *              Shut down parallel processing               *
           ************************************************************


           ************************************************************
           *        Program running with 8 parallel MPI-processes     *
           *              working on a common directory               *
           ************************************************************

Diagonalization of the overlap matrix:
Smallest eigenvalue                        ... 1.030e-05
Time for diagonalization                   ...    0.560 sec
Threshold for overlap eigenvalues          ... 1.000e-08
Number of eigenvalues below threshold      ... 0
Time for construction of square roots      ...    0.034 sec
Total time needed                          ...    0.594 sec

-------------------
DFT GRID GENERATION
-------------------

General Integration Accuracy     IntAcc      ...  4.340
Radial Grid Type                 RadialGrid  ... Gauss-Chebyshev
Angular Grid (max. acc.)         AngularGrid ... Lebedev-194
Angular grid pruning method      GridPruning ... 3 (G Style)
Weight generation scheme         WeightScheme... Becke
Basis function cutoff            BFCut       ...    1.0000e-11
Integration weight cutoff        WCut        ...    1.0000e-14
Grids for H and He will be reduced by one unit

# of grid points (after initial pruning)     ...  41338 (   0.0 sec)
# of grid points (after weights+screening)   ...  38250 (   0.1 sec)
nearest neighbour list constructed           ...    0.0 sec
Grid point re-assignment to atoms done       ...    0.0 sec
Grid point division into batches done        ...    0.1 sec
Reduced shell lists constructed in    0.1 sec

Total number of grid points                  ...    38250
Total number of batches                      ...      606
Average number of points per batch           ...       63
Average number of grid points per atom       ...     2013
Average number of shells per batch           ...    83.23 (66.59%)
Average number of basis functions per batch  ...   196.12 (67.86%)
Average number of large shells per batch     ...    65.64 (78.86%)
Average number of large basis fcns per batch ...   157.56 (80.34%)
Maximum spatial batch extension              ...   4.97,  4.76,  2.68 au
Average spatial batch extension              ...   0.18,  0.18,  0.16 au

Time for grid setup =    0.576 sec

--------------
SCF ITERATIONS
--------------
ITER       Energy         Delta-E        Max-DP      RMS-DP      [F,P]     Damp
               ***  Starting incremental Fock matrix formation  ***
                      *** Initiating the SOSCF procedure ***
                      *** Re-Reading the Fockian *** 
                      *** Removing any level shift *** 
ITER      Energy       Delta-E        Grad      Rot      Max-DP    RMS-DP
  0   -290.06151514 -290.0615151416  0.000575  0.000575  0.000603  0.000018
               *** Restarting incremental Fock matrix formation ***
  1   -290.06154098  -0.0000258355  0.000128  0.000194  0.000261  0.000009
  2   -290.06154329  -0.0000023153  0.000018  0.000047  0.000123  0.000003
  3   -290.06154332  -0.0000000246  0.000021  0.000025  0.000030  0.000001
  4   -290.06154334  -0.0000000246  0.000010  0.000022  0.000020  0.000000
  5   -290.06154334   0.0000000011  0.000013  0.000012  0.000012  0.000000
                  ***Gradient check signals convergence***
              ***Rediagonalizing the Fockian in SOSCF/NRSCF***

               *****************************************************
               *                     SUCCESS                       *
               *           SCF CONVERGED AFTER   6 CYCLES          *
               *****************************************************

Setting up the final grid:

General Integration Accuracy     IntAcc      ...  5.010
Radial Grid Type                 RadialGrid  ... Gauss-Chebyshev
Angular Grid (max. acc.)         AngularGrid ... Lebedev-434
Angular grid pruning method      GridPruning ... 3 (G Style)
Weight generation scheme         WeightScheme... Becke
Basis function cutoff            BFCut       ...    1.0000e-11
Integration weight cutoff        WCut        ...    1.0000e-14
Grids for H and He will be reduced by one unit

# of grid points (after initial pruning)     ... 155082 (   0.0 sec)
# of grid points (after weights+screening)   ... 141949 (   0.4 sec)
nearest neighbour list constructed           ...    0.0 sec
Grid point re-assignment to atoms done       ...    0.0 sec
Grid point division into batches done        ...    1.1 sec
Reduced shell lists constructed in    1.4 sec

Total number of grid points                  ...   141949
Total number of batches                      ...     2225
Average number of points per batch           ...       63
Average number of grid points per atom       ...     7471
Average number of shells per batch           ...    81.99 (65.59%)
Average number of basis functions per batch  ...   193.61 (66.99%)
Average number of large shells per batch     ...    64.67 (78.89%)
Average number of large basis fcns per batch ...   155.05 (80.08%)
Maximum spatial batch extension              ...   5.32,  4.54,  2.38 au
Average spatial batch extension              ...   0.12,  0.12,  0.11 au

Final grid set up in    2.2 sec
Final integration                            ... done (   0.9 sec)
Change in XC energy                          ...     0.000363664
Integrated number of electrons               ...    53.999989441
Previous integrated no of electrons          ...    53.999461327
Total Energy       :         -290.06117968 Eh           -7892.96597 eV
  Last Energy change         ...   -3.0204e-09  Tolerance :   1.0000e-08
  Last MAX-Density change    ...    2.4438e-05  Tolerance :   1.0000e-07
             **** THE GBW FILE WAS UPDATED (2178_+.gbw) ****
             **** DENSITY FILE WAS UPDATED (2178_+.scfp.tmp) ****
             **** ENERGY FILE WAS UPDATED (2178_+.en.tmp) ****
Total SCF time: 0 days 0 hours 0 min 40 sec 
           ************************************************************
           *              Shut down parallel processing               *
           ************************************************************

-------------------------   --------------------
FINAL SINGLE POINT ENERGY      -290.061179679181
-------------------------   --------------------



           ************************************************************
           *        Program running with 8 parallel MPI-processes     *
           *              working on a common directory               *
           ************************************************************
------------------------------------------------------------------------------
                         ORCA SCF GRADIENT CALCULATION
------------------------------------------------------------------------------

Gradient of the Kohn-Sham DFT energy:
Kohn-Sham wavefunction type      ... RKS
Hartree-Fock exchange scaling    ...    0.250
Number of operators              ...    1
Number of atoms                  ...   19
Basis set dimensions             ...  289
Integral neglect threshold       ... 2.5e-11
Integral primitive cutoff        ... 2.5e-12

Nuclear repulsion gradient       ... done
One Electron Gradient            ... done
Pre-screening matrix             ... done
Starting the two electron gradient:
Two electron gradient done
Exchange-correlation gradient    ... done

------------------
CARTESIAN GRADIENT
------------------

   1   C   :   -0.000038989    0.000062299    0.000057222
   2   C   :    0.000033805   -0.000050272   -0.000039736
   3   C   :    0.000007392   -0.000015074   -0.000048991
   4   C   :    0.000006740    0.000057776    0.000049058
   5   C   :   -0.000033371    0.000006937    0.000008861
   6   C   :    0.000013054   -0.000015884   -0.000062269
   7   N   :    0.000039576   -0.000005091    0.000003830
   8   H   :   -0.000004166   -0.000021322   -0.000009538
   9   H   :    0.000039178   -0.000003638    0.000017992
  10   H   :    0.000015149   -0.000029736   -0.000006414
  11   H   :   -0.000044173   -0.000002098   -0.000003126
  12   H   :   -0.000008321    0.000029444   -0.000003605
  13   H   :    0.000012135    0.000004396   -0.000004347
  14   H   :   -0.000002738   -0.000016897   -0.000007217
  15   H   :   -0.000005464    0.000005642    0.000009561
  16   H   :    0.000004815    0.000006971    0.000022524
  17   H   :   -0.000019973   -0.000006106    0.000017550
  18   H   :   -0.000005276   -0.000011279    0.000002434
  19   H   :   -0.000009374    0.000003932   -0.000003789

Norm of the cartesian gradient     ...    0.000195791
RMS gradient                       ...    0.000025933
MAX gradient                       ...    0.000062299

-------
TIMINGS
-------

Total SCF gradient time            ...       28.333 sec

One electron gradient       ....       0.176 sec  (  0.6%)
Prescreening matrices       ....       0.420 sec  (  1.5%)
Two electron gradient       ....      22.194 sec  ( 78.3%)
XC gradient                 ....       3.191 sec  ( 11.3%)
           ************************************************************
           *              Shut down parallel processing               *
           ************************************************************
------------------------------------------------------------------------------
                         ORCA GEOMETRY RELAXATION STEP
------------------------------------------------------------------------------

Reading the OPT-File                    .... done
Getting information on internals        .... done
Copying old internal coords+grads       .... done
Making the new internal coordinates     .... (new redundants).... done
Validating the new internal coordinates .... (new redundants).... done
Calculating the B-matrix                .... done
Calculating the G,G- and P matrices     .... done
Transforming gradient to internals      .... done
Projecting the internal gradient        .... done
Number of atoms                         ....  19
Number of internal coordinates          ....  88
Current Energy                          ....  -290.061179679 Eh
Current gradient norm                   ....     0.000195791 Eh/bohr
Maximum allowed component of the step   ....  0.300
Current trust radius                    ....  0.300
Updating the Hessian (BFGS)             .... done
Forming the augmented Hessian           .... done
Diagonalizing the augmented Hessian     .... done
Last element of RFO vector              ....  0.990948926
Lowest eigenvalues of augmented Hessian:
 -0.000006545  0.000343861  0.010959990  0.011926442  0.011939799
Length of the computed step             ....  0.135465547
The final length of the internal step   ....  0.135465547
Converting the step to cartesian space:
 Initial RMS(Int)=    0.0144406758
Transforming coordinates:
 Iter   0:  RMS(Cart)=    0.0293283401 RMS(Int)=    0.0144402202
 Iter   1:  RMS(Cart)=    0.0003784461 RMS(Int)=    0.0002243153
 Iter   2:  RMS(Cart)=    0.0000218350 RMS(Int)=    0.0000083266
 Iter   3:  RMS(Cart)=    0.0000108097 RMS(Int)=    0.0000035062
 Iter   4:  RMS(Cart)=    0.0000053570 RMS(Int)=    0.0000017294
 Iter   5:  RMS(Cart)=    0.0000026456 RMS(Int)=    0.0000008534
 Iter   6:  RMS(Cart)=    0.0000013070 RMS(Int)=    0.0000004211
 Iter   7:  RMS(Cart)=    0.0000006457 RMS(Int)=    0.0000002078
 Iter   8:  RMS(Cart)=    0.0000003190 RMS(Int)=    0.0000001026
 Iter   9:  RMS(Cart)=    0.0000001576 RMS(Int)=    0.0000000506
 Iter  10:  RMS(Cart)=    0.0000000779 RMS(Int)=    0.0000000250
done
Storing new coordinates                 .... done

                                .--------------------.
          ----------------------|Geometry convergence|---------------------
          Item                value                 Tolerance   Converged
          -----------------------------------------------------------------
          Energy change      -0.00000146            0.00000100      NO
          RMS gradient        0.00002446            0.00003000      YES
          MAX gradient        0.00012306            0.00010000      NO
          RMS step            0.01444068            0.00060000      NO
          MAX step            0.04608443            0.00100000      NO
          ....................................................
          Max(Bonds)      0.0004      Max(Angles)    0.09
          Max(Dihed)        2.64      Max(Improp)    0.00
          -----------------------------------------------------------------

The optimization has not yet converged - more geometry cycles are needed


    ---------------------------------------------------------------------------
                         Redundant Internal Coordinates
                            (Angstroem and degrees)

        Definition                    Value    dE/dq     Step     New-Value
    ----------------------------------------------------------------------------
     1. B(C   1,C   0)                1.5271 -0.000021  0.0002    1.5273   
     2. B(C   2,C   1)                1.4529 -0.000016  0.0002    1.4531   
     3. B(C   3,C   2)                1.2026  0.000027 -0.0002    1.2025   
     4. B(C   4,C   3)                1.4500 -0.000004  0.0000    1.4500   
     5. B(C   5,C   4)                1.5197 -0.000014  0.0001    1.5199   
     6. B(N   6,C   5)                1.5097  0.000024 -0.0003    1.5094   
     7. B(H   7,C   0)                1.0906  0.000003 -0.0001    1.0905   
     8. B(H   8,C   0)                1.0908  0.000007 -0.0000    1.0907   
     9. B(H   9,C   0)                1.0910 -0.000003  0.0002    1.0912   
    10. B(H  10,C   1)                1.0948  0.000002  0.0001    1.0949   
    11. B(H  11,C   1)                1.0949 -0.000002  0.0001    1.0950   
    12. B(H  12,C   4)                1.0979 -0.000014  0.0004    1.0983   
    13. B(H  13,C   4)                1.0978  0.000012 -0.0001    1.0977   
    14. B(H  14,C   5)                1.0897 -0.000006  0.0003    1.0900   
    15. B(H  15,C   5)                1.0896  0.000001  0.0001    1.0897   
    16. B(H  16,N   6)                1.0225 -0.000001 -0.0000    1.0225   
    17. B(H  17,N   6)                1.0226  0.000006  0.0001    1.0227   
    18. B(H  18,N   6)                1.0219 -0.000003 -0.0000    1.0218   
    19. A(C   1,C   0,H   9)          111.11  0.000031   -0.04    111.07   
    20. A(C   1,C   0,H   8)          111.02  0.000024   -0.02    111.00   
    21. A(H   7,C   0,H   9)          108.21 -0.000005   -0.02    108.19   
    22. A(C   1,C   0,H   7)          109.92  0.000002   -0.00    109.91   
    23. A(H   7,C   0,H   8)          108.24 -0.000012    0.01    108.24   
    24. A(H   8,C   0,H   9)          108.26 -0.000042    0.07    108.33   
    25. A(H  10,C   1,H  11)          106.09 -0.000043    0.05    106.14   
    26. A(C   0,C   1,H  11)          110.21  0.000062   -0.07    110.14   
    27. A(C   0,C   1,H  10)          110.29  0.000027   -0.04    110.26   
    28. A(C   2,C   1,H  11)          108.18  0.000015   -0.02    108.16   
    29. A(C   0,C   1,C   2)          113.20 -0.000082    0.09    113.29   
    30. A(C   2,C   1,H  10)          108.60  0.000022   -0.01    108.59   
    31. L(C   1,C   2,C   3,C   0, 2) 181.63  0.000012   -0.01    181.61   
    32. L(C   1,C   2,C   3,C   0, 1) 179.13 -0.000075    0.06    179.18   
    33. L(C   2,C   3,C   4,C   5, 2) 179.49  0.000026   -0.02    179.47   
    34. L(C   2,C   3,C   4,C   5, 1) 179.35  0.000123   -0.09    179.26   
    35. A(C   3,C   4,C   5)          109.72  0.000029   -0.05    109.67   
    36. A(C   5,C   4,H  13)          109.97 -0.000022    0.04    110.01   
    37. A(C   3,C   4,H  13)          110.06 -0.000012    0.05    110.10   
    38. A(C   5,C   4,H  12)          109.98 -0.000019   -0.04    109.94   
    39. A(C   3,C   4,H  12)          110.04  0.000001   -0.02    110.03   
    40. A(H  12,C   4,H  13)          107.04  0.000022    0.02    107.05   
    41. A(H  14,C   5,H  15)          109.01 -0.000006    0.00    109.01   
    42. A(C   4,C   5,N   6)          110.58 -0.000019    0.02    110.60   
    43. A(N   6,C   5,H  15)          106.83 -0.000006    0.01    106.84   
    44. A(C   4,C   5,H  15)          111.67  0.000020   -0.03    111.64   
    45. A(N   6,C   5,H  14)          106.85 -0.000000    0.01    106.86   
    46. A(C   4,C   5,H  14)          111.67  0.000010   -0.02    111.65   
    47. A(H  16,N   6,H  17)          107.41 -0.000019    0.03    107.44   
    48. A(C   5,N   6,H  17)          111.00 -0.000002    0.01    111.01   
    49. A(C   5,N   6,H  16)          111.02  0.000030   -0.04    110.98   
    50. A(H  17,N   6,H  18)          107.78  0.000001    0.01    107.79   
    51. A(H  16,N   6,H  18)          107.79 -0.000003   -0.01    107.78   
    52. A(C   5,N   6,H  18)          111.65 -0.000007    0.00    111.65   
    53. D(H  10,C   1,C   0,H   9)     61.16 -0.000001    0.19     61.35   
    54. D(H  11,C   1,C   0,H   9)    177.97  0.000001    0.19    178.15   
    55. D(H  11,C   1,C   0,H   8)    -61.50 -0.000015    0.24    -61.26   
    56. D(H  10,C   1,C   0,H   7)    -58.58 -0.000016    0.24    -58.34   
    57. D(C   2,C   1,C   0,H   9)    -60.74  0.000008    0.17    -60.57   
    58. D(H  10,C   1,C   0,H   8)   -178.30 -0.000017    0.24   -178.06   
    59. D(C   2,C   1,C   0,H   8)     59.80 -0.000008    0.23     60.02   
    60. D(C   2,C   1,C   0,H   7)    179.52 -0.000008    0.22    179.74   
    61. D(H  11,C   1,C   0,H   7)     58.22 -0.000014    0.24     58.46   
    62. D(H  12,C   4,C   1,H  10)     88.08  0.000007    2.51     90.59   
    63. D(C   5,C   4,C   1,H  11)   -148.07 -0.000031    2.63   -145.44   
    64. D(C   5,C   4,C   1,H  10)    -33.09 -0.000032    2.64    -30.45   
    65. D(C   5,C   4,C   1,C   0)     89.85 -0.000024    2.64     92.49   
    66. D(H  12,C   4,C   1,H  11)    -26.90  0.000009    2.50    -24.40   
    67. D(H  13,C   4,C   1,H  11)     90.88 -0.000022    2.57     93.45   
    68. D(H  13,C   4,C   1,H  10)   -154.15 -0.000024    2.58   -151.56   
    69. D(H  13,C   4,C   1,C   0)    -31.20 -0.000015    2.58    -28.62   
    70. D(H  12,C   4,C   1,C   0)   -148.98  0.000016    2.51   -146.46   
    71. D(H  15,C   5,C   4,H  12)    -60.08  0.000008   -0.06    -60.14   
    72. D(H  15,C   5,C   4,C   3)     61.10  0.000017   -0.13     60.97   
    73. D(H  14,C   5,C   4,H  13)     59.95 -0.000008   -0.05     59.89   
    74. D(H  14,C   5,C   4,H  12)    177.58 -0.000006   -0.03    177.55   
    75. D(H  14,C   5,C   4,C   3)    -61.24  0.000002   -0.11    -61.35   
    76. D(N   6,C   5,C   4,H  13)    -58.89 -0.000002   -0.07    -58.96   
    77. D(N   6,C   5,C   4,H  12)     58.75  0.000001   -0.05     58.69   
    78. D(H  15,C   5,C   4,H  13)   -177.71  0.000006   -0.08   -177.79   
    79. D(N   6,C   5,C   4,C   3)    179.92  0.000009   -0.13    179.79   
    80. D(H  17,N   6,C   5,C   4)    -59.75 -0.000002   -0.01    -59.76   
    81. D(H  16,N   6,C   5,H  15)   -178.63  0.000001   -0.01   -178.64   
    82. D(H  16,N   6,C   5,H  14)    -62.07 -0.000009    0.01    -62.06   
    83. D(H  16,N   6,C   5,C   4)     59.65 -0.000008    0.01     59.66   
    84. D(H  18,N   6,C   5,H  15)    -58.31  0.000012   -0.05    -58.36   
    85. D(H  18,N   6,C   5,H  14)     58.25  0.000003   -0.03     58.22   
    86. D(H  18,N   6,C   5,C   4)    179.97  0.000004   -0.03    179.94   
    87. D(H  17,N   6,C   5,H  15)     61.97  0.000007   -0.03     61.94   
    88. D(H  17,N   6,C   5,H  14)    178.53 -0.000003   -0.01    178.52   
    ----------------------------------------------------------------------------

         *************************************************************
         *                GEOMETRY OPTIMIZATION CYCLE   3            *
         *************************************************************
---------------------------------
CARTESIAN COORDINATES (ANGSTROEM)
---------------------------------
  C      1.104933   -0.015362   -3.383389
  C     -0.180640    0.471341   -2.717726
  C     -0.292008    0.074218   -1.324397
  C     -0.378225   -0.278595   -0.178094
  C     -0.481472   -0.684641    1.210062
  C      0.090583    0.402440    2.105028
  N     -0.011039    0.003090    3.557124
  H      1.129534    0.308048   -4.424573
  H      1.168007   -1.104076   -3.362417
  H      1.984707    0.389124   -2.880189
  H     -0.248037    1.562580   -2.776050
  H     -1.052977    0.083448   -3.253900
  H     -1.532182   -0.869900    1.470555
  H      0.060418   -1.625952    1.369132
  H      1.146205    0.578952    1.898823
  H     -0.453930    1.340092    1.996592
  H      0.501076   -0.863836    3.735126
  H     -0.984794   -0.155220    3.826617
  H      0.370403    0.723104    4.173768

----------------------------
CARTESIAN COORDINATES (A.U.)
----------------------------
  NO LB      ZA    FRAG    MASS        X           Y           Z
   0 C     6.0000    0    12.011          2.088021144584871         -0.029029578615222         -6.393678348950953
   1 C     6.0000    0    12.011         -0.341359346518101          0.890705561424702         -5.135757419798463
   2 C     6.0000    0    12.011         -0.551814774734001          0.140251132758866         -2.502747473905620
   3 C     6.0000    0    12.011         -0.714741927349229         -0.526468646400042         -0.336548414899551
   4 C     6.0000    0    12.011         -0.909850406640252         -1.293784217474944          2.286686189547125
   5 C     6.0000    0    12.011          0.171177871077894          0.760501854322766          3.977927362669113
   6 N     7.0000    0    14.007         -0.020860834493635          0.005839620270476          6.721990848832827
   7 H     1.0000    0     1.008          2.134509593750449          0.582126238433015         -8.361231935931583
   8 H     1.0000    0     1.008          2.207214031326381         -2.086400382564803         -6.354048193359716
   9 H     1.0000    0     1.008          3.750551777651987          0.735337599235767         -5.442768849064360
  10 H     1.0000    0     1.008         -0.468721246281553          2.952849000746213         -5.245974029247215
  11 H     1.0000    0     1.008         -1.989838748093381          0.157694102106772         -6.148980407231470
  12 H     1.0000    0     1.008         -2.895404096239435         -1.643872938051435          2.778946821143834
  13 H     1.0000    0     1.008          0.114173398284695         -3.072603992078032          2.587284880949755
  14 H     1.0000    0     1.008          2.166014006142079          1.094059972634293          3.588255379497009
  15 H     1.0000    0     1.008         -0.857802487994671          2.532407063824963          3.773011780219586
  16 H     1.0000    0     1.008          0.946895576489898         -1.632414349714017          7.058364668185549
  17 H     1.0000    0     1.008         -1.860991311137727         -0.293322731003094          7.231258966713224
  18 H     1.0000    0     1.008          0.699960958608247          1.366469447219033          7.887278107888261

--------------------------------
INTERNAL COORDINATES (ANGSTROEM)
--------------------------------
 C      0   0   0   0.000000     0.000     0.000
 C      1   0   0   1.527313     0.000     0.000
 C      2   1   0   1.453092   113.287     0.000
 C      3   2   1   1.202465   178.771   310.939
 C      4   3   2   1.450004   179.199   164.590
 C      5   4   3   1.519855   109.672   336.835
 N      6   5   4   1.509434   110.604   179.793
 H      1   2   3   1.090534   109.913   179.740
 H      1   2   3   1.090741   111.000    60.023
 H      1   2   3   1.091247   111.070   299.433
 H      2   1   3   1.094873   110.255   121.919
 H      2   1   3   1.094951   110.138   238.720
 H      5   4   3   1.098257   110.025    97.888
 H      5   4   3   1.097731   110.103   215.648
 H      6   5   4   1.089961   111.651   298.651
 H      6   5   4   1.089699   111.640    60.966
 H      7   6   5   1.022501   110.982    59.664
 H      7   6   5   1.022686   111.012   300.244
 H      7   6   5   1.021845   111.653   179.941

---------------------------
INTERNAL COORDINATES (A.U.)
---------------------------
 C      0   0   0   0.000000     0.000     0.000
 C      1   0   0   2.886203     0.000     0.000
 C      2   1   0   2.745945   113.287     0.000
 C      3   2   1   2.272329   178.771   310.939
 C      4   3   2   2.740110   179.199   164.590
 C      5   4   3   2.872109   109.672   336.835
 N      6   5   4   2.852416   110.604   179.793
 H      1   2   3   2.060810   109.913   179.740
 H      1   2   3   2.061202   111.000    60.023
 H      1   2   3   2.062158   111.070   299.433
 H      2   1   3   2.069010   110.255   121.919
 H      2   1   3   2.069157   110.138   238.720
 H      5   4   3   2.075405   110.025    97.888
 H      5   4   3   2.074412   110.103   215.648
 H      6   5   4   2.059727   111.651   298.651
 H      6   5   4   2.059233   111.640    60.966
 H      7   6   5   1.932246   110.982    59.664
 H      7   6   5   1.932597   111.012   300.244
 H      7   6   5   1.931008   111.653   179.941



           ************************************************************
           *        Program running with 8 parallel MPI-processes     *
           *              working on a common directory               *
           ************************************************************
           ************************************************************
           *              Shut down parallel processing               *
           ************************************************************


           ************************************************************
           *        Program running with 8 parallel MPI-processes     *
           *              working on a common directory               *
           ************************************************************

Diagonalization of the overlap matrix:
Smallest eigenvalue                        ... 1.030e-05
Time for diagonalization                   ...    0.145 sec
Threshold for overlap eigenvalues          ... 1.000e-08
Number of eigenvalues below threshold      ... 0
Time for construction of square roots      ...    0.018 sec
Total time needed                          ...    0.163 sec

-------------------
DFT GRID GENERATION
-------------------

General Integration Accuracy     IntAcc      ...  4.340
Radial Grid Type                 RadialGrid  ... Gauss-Chebyshev
Angular Grid (max. acc.)         AngularGrid ... Lebedev-194
Angular grid pruning method      GridPruning ... 3 (G Style)
Weight generation scheme         WeightScheme... Becke
Basis function cutoff            BFCut       ...    1.0000e-11
Integration weight cutoff        WCut        ...    1.0000e-14
Grids for H and He will be reduced by one unit

# of grid points (after initial pruning)     ...  41338 (   0.0 sec)
# of grid points (after weights+screening)   ...  38248 (   0.1 sec)
nearest neighbour list constructed           ...    0.0 sec
Grid point re-assignment to atoms done       ...    0.0 sec
Grid point division into batches done        ...    0.1 sec
Reduced shell lists constructed in    0.1 sec

Total number of grid points                  ...    38248
Total number of batches                      ...      606
Average number of points per batch           ...       63
Average number of grid points per atom       ...     2013
Average number of shells per batch           ...    83.35 (66.68%)
Average number of basis functions per batch  ...   196.34 (67.94%)
Average number of large shells per batch     ...    65.74 (78.87%)
Average number of large basis fcns per batch ...   157.48 (80.21%)
Maximum spatial batch extension              ...   3.62,  4.92,  2.70 au
Average spatial batch extension              ...   0.18,  0.18,  0.17 au

Time for grid setup =    0.366 sec

--------------
SCF ITERATIONS
--------------
ITER       Energy         Delta-E        Max-DP      RMS-DP      [F,P]     Damp
               ***  Starting incremental Fock matrix formation  ***
                      *** Initiating the SOSCF procedure ***
                      *** Re-Reading the Fockian *** 
                      *** Removing any level shift *** 
ITER      Energy       Delta-E        Grad      Rot      Max-DP    RMS-DP
  0   -290.06087735 -290.0608773547  0.002717  0.002717  0.002920  0.000086
               *** Restarting incremental Fock matrix formation ***
  1   -290.06148319  -0.0006058355  0.000629  0.000985  0.001339  0.000041
  2   -290.06153782  -0.0000546339  0.000072  0.000211  0.000491  0.000012
  3   -290.06153857  -0.0000007465  0.000073  0.000095  0.000108  0.000003
  4   -290.06153884  -0.0000002711  0.000040  0.000083  0.000061  0.000002
  5   -290.06153887  -0.0000000261  0.000040  0.000047  0.000050  0.000001
  6   -290.06153889  -0.0000000174  0.000012  0.000019  0.000033  0.000001
                  ***Gradient check signals convergence***
              ***Rediagonalizing the Fockian in SOSCF/NRSCF***

               *****************************************************
               *                     SUCCESS                       *
               *           SCF CONVERGED AFTER   7 CYCLES          *
               *****************************************************

Setting up the final grid:

General Integration Accuracy     IntAcc      ...  5.010
Radial Grid Type                 RadialGrid  ... Gauss-Chebyshev
Angular Grid (max. acc.)         AngularGrid ... Lebedev-434
Angular grid pruning method      GridPruning ... 3 (G Style)
Weight generation scheme         WeightScheme... Becke
Basis function cutoff            BFCut       ...    1.0000e-11
Integration weight cutoff        WCut        ...    1.0000e-14
Grids for H and He will be reduced by one unit

# of grid points (after initial pruning)     ... 155082 (   0.0 sec)
# of grid points (after weights+screening)   ... 141936 (   2.9 sec)
nearest neighbour list constructed           ...    0.0 sec
Grid point re-assignment to atoms done       ...    0.0 sec
Grid point division into batches done        ...    1.2 sec
Reduced shell lists constructed in    1.5 sec

Total number of grid points                  ...   141936
Total number of batches                      ...     2228
Average number of points per batch           ...       63
Average number of grid points per atom       ...     7470
Average number of shells per batch           ...    82.04 (65.63%)
Average number of basis functions per batch  ...   193.82 (67.07%)
Average number of large shells per batch     ...    64.65 (78.80%)
Average number of large basis fcns per batch ...   154.88 (79.91%)
Maximum spatial batch extension              ...   7.89,  5.23,  2.61 au
Average spatial batch extension              ...   0.13,  0.12,  0.11 au

Final grid set up in    4.9 sec
Final integration                            ... done (   0.8 sec)
Change in XC energy                          ...     0.000354976
Integrated number of electrons               ...    53.999993813
Previous integrated no of electrons          ...    53.999364147
Total Energy       :         -290.06118392 Eh           -7892.96609 eV
  Last Energy change         ...   -1.1608e-08  Tolerance :   1.0000e-08
  Last MAX-Density change    ...    1.6844e-05  Tolerance :   1.0000e-07
             **** THE GBW FILE WAS UPDATED (2178_+.gbw) ****
             **** DENSITY FILE WAS UPDATED (2178_+.scfp.tmp) ****
             **** ENERGY FILE WAS UPDATED (2178_+.en.tmp) ****
Total SCF time: 0 days 0 hours 0 min 47 sec 
           ************************************************************
           *              Shut down parallel processing               *
           ************************************************************

-------------------------   --------------------
FINAL SINGLE POINT ENERGY      -290.061183920700
-------------------------   --------------------



           ************************************************************
           *        Program running with 8 parallel MPI-processes     *
           *              working on a common directory               *
           ************************************************************
------------------------------------------------------------------------------
                         ORCA SCF GRADIENT CALCULATION
------------------------------------------------------------------------------

Gradient of the Kohn-Sham DFT energy:
Kohn-Sham wavefunction type      ... RKS
Hartree-Fock exchange scaling    ...    0.250
Number of operators              ...    1
Number of atoms                  ...   19
Basis set dimensions             ...  289
Integral neglect threshold       ... 2.5e-11
Integral primitive cutoff        ... 2.5e-12

Nuclear repulsion gradient       ... done
One Electron Gradient            ... done
Pre-screening matrix             ... done
Starting the two electron gradient:
Two electron gradient done
Exchange-correlation gradient    ... done

------------------
CARTESIAN GRADIENT
------------------

   1   C   :   -0.000048178   -0.000089509   -0.000277096
   2   C   :    0.000047211    0.000039187    0.000068421
   3   C   :   -0.000087828   -0.000154598    0.000465330
   4   C   :   -0.000033051    0.000212662   -0.000299109
   5   C   :    0.000276900   -0.000132218   -0.000057711
   6   C   :   -0.000135799   -0.000101906    0.000142377
   7   N   :    0.000058339    0.000057596   -0.000042186
   8   H   :    0.000048154   -0.000023554    0.000048713
   9   H   :   -0.000062263   -0.000008494   -0.000023784
  10   H   :    0.000080724    0.000137761    0.000070661
  11   H   :    0.000015414    0.000061602   -0.000013360
  12   H   :    0.000017913   -0.000097069   -0.000036331
  13   H   :   -0.000191665    0.000032002    0.000053654
  14   H   :   -0.000035970   -0.000001373    0.000004664
  15   H   :    0.000184189    0.000014684   -0.000055489
  16   H   :   -0.000043401    0.000041888    0.000010111
  17   H   :    0.000030180    0.000044027   -0.000051085
  18   H   :   -0.000116312    0.000008436    0.000024333
  19   H   :   -0.000004557   -0.000041124   -0.000032112

Norm of the cartesian gradient     ...    0.000891857
RMS gradient                       ...    0.000118129
MAX gradient                       ...    0.000465330

-------
TIMINGS
-------

Total SCF gradient time            ...       29.146 sec

One electron gradient       ....       0.134 sec  (  0.5%)
Prescreening matrices       ....       0.360 sec  (  1.2%)
Two electron gradient       ....      24.398 sec  ( 83.7%)
XC gradient                 ....       3.555 sec  ( 12.2%)
           ************************************************************
           *              Shut down parallel processing               *
[...]
     42       0.083981   0.062053   0.019674  -0.076220  -0.113634  -0.013941
     43       0.113266  -0.119200   0.068287   0.007451   0.424057   0.176132
     44      -0.192936   0.122521  -0.086733  -0.050569  -0.575145  -0.248244
     45       0.038052   0.005586   0.061102  -0.020071  -0.036617   0.097948
     46       0.054343   0.011495  -0.052757   0.056275   0.137362  -0.192883
     47      -0.084161   0.030247   0.045726  -0.006463  -0.095074   0.193610
     48      -0.074097  -0.249950  -0.006868  -0.371203  -0.179271  -0.178950
     49      -0.039554  -0.246580  -0.013628  -0.301967  -0.046467  -0.180852
     50      -0.278120  -0.031238  -0.007117   0.148923   0.040397   0.005453
     51      -0.163369   0.179076  -0.000091   0.486301   0.114942   0.152911
     52      -0.186126  -0.093374  -0.093913   0.089416   0.450642  -0.596568
     53      -0.251432   0.007411   0.025250   0.313022   0.011425   0.223237
     54      -0.031751   0.058944   0.028181  -0.052674   0.007800  -0.076303
     55      -0.001222  -0.068061  -0.009340  -0.021620   0.155321   0.031721
     56      -0.399780  -0.024084   0.025030   0.051141   0.013404  -0.155599
                 42         43         44         45         46         47    
      0      -0.002676   0.001485  -0.000288  -0.006078  -0.008193   0.020372
      1       0.000109  -0.002440   0.005478   0.011038   0.015459  -0.042339
      2      -0.000359   0.000532  -0.003314  -0.005062  -0.007884   0.015547
      3       0.002841   0.001158  -0.005430  -0.006954  -0.006612   0.019562
      4      -0.002641  -0.002459   0.008140   0.009035   0.006907  -0.032927
      5       0.007784   0.001549  -0.000049   0.009107   0.025915  -0.008328
      6       0.000125   0.000157  -0.000340  -0.000362  -0.000777   0.002266
      7      -0.002446  -0.001000   0.001219   0.001883   0.000074  -0.002039
      8       0.004691  -0.000819   0.001272   0.000903   0.013905  -0.037508
      9      -0.000158  -0.000041   0.000335   0.000123   0.000416  -0.001905
     10       0.001553   0.000125  -0.001533  -0.001118   0.000581  -0.003411
     11       0.001356  -0.001368   0.009208   0.013137   0.018981  -0.038322
     12      -0.001082  -0.000988  -0.000166  -0.000035  -0.000450  -0.002359
     13       0.003414   0.002492  -0.002907  -0.003323  -0.003020   0.016227
     14      -0.004135  -0.000097   0.004617   0.004091   0.000315   0.001070
     15       0.000750   0.000965  -0.004043  -0.005720  -0.008223   0.022900
     16       0.000928  -0.002062   0.007685   0.017318   0.022505  -0.033930
     17      -0.000696   0.004965  -0.017172  -0.028072  -0.040101   0.097575
     18      -0.006390  -0.005555   0.006735   0.010880   0.011781  -0.028956
     19       0.036594   0.021987  -0.025182   0.010471   0.031138   0.019049
     20      -0.010308   0.001637  -0.007891  -0.018086  -0.041817   0.085011
     21      -0.010758  -0.202307  -0.250903   0.147484   0.104830  -0.241550
     22       0.073679   0.300247   0.447435  -0.192557  -0.118818   0.270471
     23      -0.070436  -0.203224  -0.249074   0.130766   0.084626  -0.219964
     24       0.088533   0.115266   0.108287  -0.019153  -0.031235  -0.097032
     25      -0.164975  -0.217069  -0.181620   0.028441   0.037085   0.174786
     26       0.041249   0.092293   0.115452  -0.002980   0.000211  -0.150612
     27      -0.028399   0.087314   0.192035   0.042371   0.050822  -0.118161
     28       0.044878  -0.171951  -0.332666  -0.075052  -0.102131   0.182734
     29      -0.079513   0.164837   0.374194   0.086654   0.118564  -0.259092
     30       0.001723   0.001930   0.000775  -0.001453  -0.001998   0.011176
     31      -0.000487   0.002744   0.014519   0.006940   0.013825  -0.022728
     32      -0.008394  -0.028358  -0.080980  -0.010848  -0.021659   0.005666
     33       0.003465   0.001956  -0.001982  -0.003231  -0.002220   0.006535
     34       0.004244   0.002060  -0.008650  -0.012541  -0.014991   0.024905
     35      -0.054519  -0.026780   0.077302   0.116589   0.138314  -0.221799
     36       0.000874   0.000577   0.000396  -0.000043   0.000071   0.000340
     37      -0.008239  -0.004143  -0.030943  -0.045021  -0.060748   0.163226
     38       0.003531   0.009492   0.025963   0.048249   0.039561  -0.135344
     39       0.002230   0.001586  -0.001193  -0.002371  -0.001061   0.001245
     40       0.032635   0.012750  -0.058273  -0.054621  -0.078893   0.171368
     41      -0.104993  -0.028677   0.110788   0.096685   0.122678  -0.253227
     42      -0.009019  -0.018653  -0.000499  -0.012174  -0.012600   0.043725
     43       0.166874   0.185787  -0.096530  -0.020301  -0.016314   0.069332
     44      -0.220806  -0.218867   0.100541  -0.014048   0.002217  -0.096487
     45       0.131363  -0.080234   0.032099   0.014256  -0.055809   0.036573
     46      -0.538485   0.288695  -0.116793  -0.041110   0.083197   0.051855
     47       0.533979  -0.288453   0.108137   0.028118  -0.118045  -0.048797
     48       0.030553   0.063398  -0.026613  -0.165714   0.419213   0.182841
     49      -0.150367  -0.049250   0.120602   0.430779  -0.486133   0.064689
     50       0.045034   0.056315  -0.100226  -0.315617   0.393463   0.024459
     51      -0.222291  -0.160447   0.156807   0.209246  -0.044303   0.172019
     52       0.225690  -0.253970   0.237681   0.103058   0.142991   0.113425
     53      -0.220148  -0.015887  -0.004381   0.084928  -0.068651   0.105325
     54       0.102905   0.234224  -0.184451  -0.133709  -0.305353  -0.320261
     55      -0.204871  -0.337743   0.139703  -0.688568  -0.338253  -0.356037
     56       0.175284   0.407833  -0.303284   0.073079  -0.242825  -0.289291
                 48         49         50         51         52         53    
      0      -0.018411   0.023317   0.031657  -0.119952   0.017164  -0.036076
      1       0.002519  -0.021265  -0.034412   0.157896  -0.071534  -0.027029
      2      -0.008504   0.034221   0.024392  -0.074673  -0.003484   0.156254
      3      -0.005958  -0.050780  -0.007725   0.098130   0.014331   0.043019
      4       0.022245   0.082023  -0.002615  -0.171146  -0.092069  -0.038307
      5      -0.002732  -0.129869  -0.006902  -0.018892   0.239164  -0.119554
      6      -0.009586   0.012421   0.000152  -0.040143  -0.027821  -0.042809
      7       0.008679   0.009801   0.020816   0.089251   0.073519   0.063152
      8      -0.017593  -0.150444  -0.015925  -0.092897  -0.084874   0.083791
      9       0.010728  -0.005718   0.043571   0.022985  -0.012887  -0.013857
     10      -0.031373  -0.007648  -0.047274  -0.064146   0.040843   0.023361
     11       0.015030  -0.016580  -0.097954  -0.015976  -0.059049  -0.026733
     12      -0.022648  -0.009551   0.010614   0.018186  -0.034734   0.036084
     13       0.010701   0.023223  -0.007952  -0.003303   0.170191  -0.089222
     14       0.064156   0.033183  -0.036768  -0.081372  -0.190356  -0.001493
     15      -0.008558  -0.002041  -0.001479   0.109064  -0.023819   0.029599
     16      -0.012280   0.055267   0.018606  -0.143315  -0.070088   0.093523
     17       0.017846  -0.042150  -0.020268   0.218259  -0.112215  -0.035836
     18      -0.011030  -0.090973  -0.001101  -0.135064   0.078362  -0.011924
     19      -0.008972  -0.060907   0.019781   0.091266  -0.038764  -0.043036
     20       0.053470   0.133719   0.020267  -0.067389   0.161038  -0.012839
     21       0.340578  -0.003237  -0.335883   0.227544   0.079249   0.039238
     22       0.035990  -0.185082   0.148674  -0.108388  -0.103471   0.010462
     23      -0.150990   0.113227   0.108796   0.121980   0.012319  -0.016447
     24       0.135461   0.137518  -0.151381  -0.016380   0.169509  -0.017906
     25      -0.099925  -0.211234   0.155450  -0.045689  -0.140177   0.012300
     26      -0.103516   0.113684   0.065471   0.103925   0.081710  -0.056381
     27       0.058528   0.020597  -0.073526   0.191808   0.056348   0.033778
     28       0.075622  -0.051475   0.216169  -0.287174   0.049143  -0.060912
     29      -0.175662   0.057093   0.008859   0.147509   0.036999  -0.023338
     30       0.048649   0.005922   0.023296  -0.027478  -0.146866  -0.124729
     31       0.038582  -0.083117  -0.049481   0.030357   0.292004   0.203556
     32      -0.646957   0.225069   0.091609   0.026094  -0.022825  -0.077182
     33      -0.036065   0.023887  -0.049006  -0.173788  -0.099388  -0.124632
     34      -0.038170  -0.039818  -0.104881   0.117989   0.173796   0.159347
     35       0.407995   0.064370   0.721250   0.273548  -0.020578  -0.154895
     36       0.029215  -0.004091  -0.002917   0.072184   0.115234   0.215262
     37      -0.071762  -0.015275   0.056996  -0.043248  -0.572588  -0.386328
     38      -0.142823   0.238975   0.062046   0.036308  -0.137584  -0.284759
     39      -0.011862   0.008385  -0.034457  -0.075324  -0.150875  -0.224697
     40       0.002134  -0.033611   0.112136   0.248793   0.162959   0.602820
     41      -0.068514   0.123496   0.091451   0.209336   0.167072   0.214483
     42       0.042592   0.082458  -0.004832   0.092991  -0.152769   0.026591
     43       0.051898   0.034854  -0.089970   0.000151   0.092028  -0.083731
     44      -0.100880  -0.004515   0.121218   0.100575  -0.007790  -0.008234
     45      -0.009129   0.139404   0.054210   0.074296  -0.149433   0.137492
     46       0.079969  -0.122661   0.044621  -0.018796  -0.054812   0.018111
     47      -0.104294   0.119954   0.067186   0.077181   0.069253  -0.002856
     48       0.011189   0.496525  -0.228255   0.193959   0.097239  -0.012758
     49      -0.074575  -0.014571  -0.152045   0.173396   0.108277  -0.075767
     50      -0.161702   0.118840   0.027873   0.228145   0.057575  -0.021974
     51       0.045805   0.459624  -0.128917   0.161195   0.022962  -0.004152
     52       0.095053  -0.099031   0.086461   0.138016  -0.142139  -0.022147
     53      -0.187230   0.146835   0.074443   0.201692   0.013478  -0.038104
     54       0.146905   0.282658   0.031956   0.104012  -0.122630   0.032029
     55       0.024013  -0.017513  -0.069478   0.132185   0.067592  -0.083285
     56      -0.121116   0.061588   0.106331   0.191214   0.024616  -0.024305
                  54         55         56    
      0      -0.126659  -0.098077  -0.010523
      1       0.071456   0.111006   0.045734
      2       0.164637   0.017339   0.012164
      3       0.114849   0.034335  -0.006430
      4      -0.129961   0.013822  -0.018372
      5      -0.050569  -0.004482  -0.001497
      6      -0.030802   0.087604   0.061857
      7       0.023839  -0.169708  -0.090936
      8       0.081677  -0.024458  -0.016314
      9       0.023908   0.011648  -0.032844
     10      -0.035622  -0.049064   0.078552
     11      -0.016377   0.085983   0.007229
     12      -0.007090  -0.025110   0.012853
     13       0.043692   0.124639   0.012754
     14      -0.110583  -0.049144   0.008642
     15      -0.006050  -0.020113  -0.009240
     16       0.064367   0.006060  -0.007333
     17      -0.112967  -0.048951  -0.014742
     18      -0.000484  -0.008092   0.005332
     19      -0.038372  -0.016103  -0.005769
     20       0.055344   0.033237  -0.002729
     21       0.151662   0.034590  -0.068560
     22       0.132384   0.123458   0.017675
     23      -0.071707  -0.068150   0.012176
     24       0.019715  -0.236609  -0.034270
     25       0.117830   0.142319  -0.001549
     26      -0.053489  -0.105369   0.025426
     27       0.137042  -0.056417  -0.013696
     28       0.032746  -0.147238   0.065417
     29      -0.054402  -0.043391  -0.010892
     30       0.025803  -0.018555   0.421107
     31      -0.131405  -0.069301  -0.621348
     32      -0.047592   0.128046  -0.073469
     33      -0.150971   0.403165  -0.382283
     34       0.043574  -0.516526   0.422063
     35       0.055968  -0.034495   0.085948
     36      -0.187066   0.071557   0.040327
     37       0.406971  -0.105097  -0.159467
     38       0.180630  -0.228615  -0.038140
     39       0.259272  -0.194847  -0.061404
     40      -0.544055   0.330546   0.115224
     41      -0.304837   0.084395   0.055140
     42       0.061792   0.051103  -0.084569
     43       0.104999  -0.079531   0.022349
     44       0.036359   0.032258  -0.009736
     45      -0.098074   0.156158  -0.048189
     46      -0.056023   0.115455  -0.011821
     47       0.000471   0.038754   0.023880
     48       0.095785  -0.075766   0.017947
     49       0.035540  -0.086670   0.027371
     50      -0.000095  -0.022093   0.007975
     51       0.076666  -0.027820  -0.002433
     52      -0.056708   0.118667  -0.045395
     53      -0.019335  -0.007809   0.009940
     54      -0.005465   0.121614  -0.044822
     55      -0.002712  -0.040275   0.006575
     56       0.035434   0.047175   0.003515


-----------
IR SPECTRUM
-----------

 Mode    freq (cm**-1)   T**2         TX         TY         TZ
-------------------------------------------------------------------
  45:      2244.48  132.628734  ( -1.485679   1.596816 -11.308036)
  46:      3043.90   50.444295  ( -1.586619  -4.006307  -5.645923)
  47:      6403.35  148.518155  ( -4.614412  10.233010   4.744562)
  48:      9052.83  122.770563  ( -7.212540  -6.225020  -5.656762)
  49:     13820.09   85.057211  ( -1.005135   3.444279   8.496108)
  50:     22219.83  377.393967  ( -7.364677  -7.483362  16.344871)
  51:     33433.47  739.775646  ( -7.174705  20.999742  15.726096)
  52:     36080.24  469.102598  ( 18.294172   7.097658   9.167831)
  53:     41764.18  209.961707  (  8.960342  -6.733176   9.183589)
  54:     48673.23  4688.213211  ( -5.043379   7.848676 -67.831968)
  55:     61716.07  1191.003299  (-19.412301  28.421821   2.523091)
  56:     79101.66  3705.508203  ( 25.868304 -26.746072  48.176619)

The first frequency considered to be a vibration is 45
The total number of vibrations considered is 12


--------------------------
THERMOCHEMISTRY AT 298.15K
--------------------------

Temperature         ... 298.15 K
Pressure            ... 1.00 atm
Total Mass          ... 98.17 AMU

Throughout the following assumptions are being made:
  (1) The electronic state is orbitally nondegenerate
  (2) There are no thermally accessible electronically excited states
  (3) Hindered rotations indicated by low frequency modes) are not
      treated as such but are treated as vibrations and this may
      case some error
  (4) All equations used are the standard statistical mechanics
      equations for an ideal gas
  (5) All vibrations are strinctly harmonic


------------
INNER ENERGY
------------

The inner energy is: U= E(el) + E(ZPE) + E(vib) + E(rot) + E(trans)
    E(el)   - is the total energy from the electronic structure calculation
              = E(kin-el) + E(nuc-el) + E(el-el) + E(nuc-nuc)
    E(ZPE)  - the the zero temperature vibrational energy from the frequency calculation
    E(vib)  - the the finite temperature correction to E(ZPE) due to population
              of excietd vibrational states
    E(rot)  - is the rotational thermal energy
    E(trans)- is the translational thermal energy

Summary of contributions to the inner energy U:
Electronic energy                ...   -290.06121361 Eh
Zero point energy                ...      0.81456643 Eh     511.15 kcal/mol
Thermal vibrational correction   ...      0.00000021 Eh       0.00 kcal/mol
Thermal rotational correction    ...      0.00141627 Eh       0.89 kcal/mol
Thermal translational correction ...      0.00141627 Eh       0.89 kcal/mol
-----------------------------------------------------------------------
Total thermal energy                   -289.24381443 Eh


Summary of corrections to the electronic energy:
(perhaps to be used in another calculation)
Total thermal correction                  0.00283275 Eh       1.78 kcal/mol
Non-thermal (ZPE) correction              0.81456643 Eh     511.15 kcal/mol
-----------------------------------------------------------------------
Total correction                          0.81739918 Eh     512.92 kcal/mol


--------
ENTHALPY
--------

The enthalpy is H = U + kB*T
                kB is Boltzmann's constant
Total free energy                 ...   -289.24381443 Eh 
Thermal Enthalpy correction       ...      0.00094421 Eh       0.59 kcal/mol
-----------------------------------------------------------------------
Total Enthalpy                    ...   -289.24287023 Eh


-------
ENTROPY
-------

The entropy contributions are T*S = T*(S(el)+S(vib)+S(rot)+S(trans)
     S(el)   - electronic entropy
     S(vib)  - vibrational entropy
     S(rot)  - rotational entropy
     S(trans)- translational entropy
The entropies will be listed as mutliplied by the temperature to get
units of energy

Electronic entropy                ...      0.00000000 Eh      0.00 kcal/mol
Vibrational entropy               ...      0.00000023 Eh      0.00 kcal/mol
Rotational entropy                ...      0.01239037 Eh      7.78 kcal/mol
Translational entropy             ...      0.01884507 Eh     11.83 kcal/mol
-----------------------------------------------------------------------
Final entropy term                ...      0.03123566 Eh     19.60 kcal/mol


CAUTION: The rotational entropy is not quite correctly treated here
         because it includes a symmetry number that is not yet correctly
         implemented in ORCA!
For a nonlinear molecule the correct rotational entropy is:
    S(rot) = R*(ln(qrot/sn)+1.5)
    R    = 8.31441 J/mol/K = 1.987191683e-3 kcal/mol/K
    qrot = 334865.9557459
    sn is the rotational symmetry number. We have assumed 3 here
       if it is different for your molecule then you should correct
       the printed rotational entropy by manually evaluating the equation
       as given above

For convenience we print out the resulting values for sn=1 - 12:
 sn= 1  qrot/sn=  334865.9557 T*S(rot)=     8.43 kcal/mol T*S(tot)=    20.25 kcal/mol
 sn= 2  qrot/sn=  167432.9779 T*S(rot)=     8.02 kcal/mol T*S(tot)=    19.84 kcal/mol
 sn= 3  qrot/sn=  111621.9852 T*S(rot)=     7.78 kcal/mol T*S(tot)=    19.60 kcal/mol
 sn= 4  qrot/sn=   83716.4889 T*S(rot)=     7.60 kcal/mol T*S(tot)=    19.43 kcal/mol
 sn= 5  qrot/sn=   66973.1911 T*S(rot)=     7.47 kcal/mol T*S(tot)=    19.30 kcal/mol
 sn= 6  qrot/sn=   55810.9926 T*S(rot)=     7.36 kcal/mol T*S(tot)=    19.19 kcal/mol
 sn= 7  qrot/sn=   47837.9937 T*S(rot)=     7.27 kcal/mol T*S(tot)=    19.10 kcal/mol
 sn= 8  qrot/sn=   41858.2445 T*S(rot)=     7.19 kcal/mol T*S(tot)=    19.02 kcal/mol
 sn= 9  qrot/sn=   37207.3284 T*S(rot)=     7.12 kcal/mol T*S(tot)=    18.95 kcal/mol
 sn=10  qrot/sn=   33486.5956 T*S(rot)=     7.06 kcal/mol T*S(tot)=    18.89 kcal/mol
 sn=11  qrot/sn=   30442.3596 T*S(rot)=     7.01 kcal/mol T*S(tot)=    18.83 kcal/mol
 sn=12  qrot/sn=   27905.4963 T*S(rot)=     6.95 kcal/mol T*S(tot)=    18.78 kcal/mol


-------------------
GIBBS FREE ENTHALPY
-------------------

The Gibbs free enthalpy is G = H - T*S

Total enthalpy                    ...   -289.24287023 Eh 
Total entropy correction          ...     -0.03123566 Eh    -19.60 kcal/mol
-----------------------------------------------------------------------
Final Gibbs free enthalpy         ...   -289.27410589 Eh

For completeness - the Gibbs free enthalpy minus the electronic energy
G-E(el)                           ...      0.78710772 Eh    493.92 kcal/mol


Timings for individual modules:

Sum of individual times         ...     3362.473 sec (=  56.041 min)
GTO integral calculation        ...       21.529 sec (=   0.359 min)   0.6 %
SCF iterations                  ...      566.512 sec (=   9.442 min)  16.8 %
SCF Gradient evaluation         ...      294.940 sec (=   4.916 min)   8.8 %
Geometry relaxation             ...        0.718 sec (=   0.012 min)   0.0 %
Analytical frequency calculation...     2478.774 sec (=  41.313 min)  73.7 %
                             ****ORCA TERMINATED NORMALLY****
TOTAL RUN TIME: 0 days 0 hours 56 minutes 4 seconds 510 msec
