
                                 *****************
                                 * O   R   C   A *
                                 *****************

           --- An Ab Initio, DFT and Semiempirical electronic structure package ---

                  #######################################################
                  #                        -***-                        #
                  #  Department of molecular theory and spectroscopy    #
                  #              Directorship: Frank Neese              #
                  # Max Planck Institute for Chemical Energy Conversion #
                  #                  D-45470 Muelheim/Ruhr              #
                  #                       Germany                       #
                  #                                                     #
                  #                  All rights reserved                #
                  #                        -***-                        #
                  #######################################################


                         Program Version 3.0.3 - RELEASE   -


 With contributions from (in alphabetic order):
   Ute Becker             : Parallelization
   Dmytro Bykov           : SCF Hessian
   Dmitry Ganyushin       : Spin-Orbit,Spin-Spin,Magnetic field MRCI
   Andreas Hansen         : Spin unrestricted coupled pair/coupled cluster methods
   Dimitrios Liakos       : Extrapolation schemes; parallel MDCI
   Robert Izsak           : Overlap fitted RIJCOSX, COSX-SCS-MP3
   Christian Kollmar      : KDIIS, OOCD, Brueckner-CCSD(T), CCSD density
   Simone Kossmann        : Meta GGA functionals, TD-DFT gradient, OOMP2, MP2 Hessian
   Taras Petrenko         : DFT Hessian,TD-DFT gradient, ASA and ECA modules, normal mode analysis, Resonance Raman, ABS, FL, XAS/XES, NRVS
   Christoph Reimann      : Effective Core Potentials
   Michael Roemelt        : Restricted open shell CIS
   Christoph Riplinger    : Improved optimizer, TS searches, QM/MM, DLPNO-CCSD
   Barbara Sandhoefer     : DKH picture change effects
   Igor Schapiro          : Molecular dynamics
   Kantharuban Sivalingam : CASSCF convergence, NEVPT2
   Boris Wezisla          : Elementary symmetry handling
   Frank Wennmohs         : Technical directorship


 We gratefully acknowledge several colleagues who have allowed us to
 interface, adapt or use parts of their codes:
   Stefan Grimme, W. Hujo, H. Kruse, T. Risthaus : VdW corrections, initial TS optimization,
                                                   DFT functionals, gCP
   Ed Valeev                                     : LibInt (2-el integral package), F12 methods
   Garnet Chan, S. Sharma, R. Olivares           : DMRG
   Ulf Ekstrom                                   : XCFun DFT Library
   Mihaly Kallay                                 : mrcc  (arbitrary order and MRCC methods)
   Andreas Klamt, Michael Diedenhofen            : otool_cosmo (COSMO solvation model)
   Frank Weinhold                                : gennbo (NPA and NBO analysis)
   Christopher J. Cramer and Donald G. Truhlar   : smd solvation model


 Your calculation uses the libint2 library for the computation of 2-el integrals
 For citations please refer to: http://libint.valeyev.net

 This ORCA versions uses:
   CBLAS   interface :  Fast vector & matrix operations
   LAPACKE interface :  Fast linear algebra routines
   SCALAPACK package :  Parallel linear algebra routines


Your calculation utilizes the basis: Ahlrichs-TZV
Cite in your paper:
H - Kr: A. Schaefer, H. Horn and R. Ahlrichs, J. Chem. Phys. 97, 2571 (1992).

The def2-TZV basis will be loaded
Cite in your paper:
 	F. Weigend, R. Ahlrichs, Phys. Chem. Chem. Phys. 2005, 7, 3297.

================================================================================
                                        WARNINGS
                       Please study these warnings very carefully!
================================================================================
Now building the actual basis set
WARNING: Geometry optimizations can change the point-group symmetry!

WARNING: Geometry Optimization
  ===> : Switching off AutoStart
         For restart on a previous wavefunction, please use MOREAD


INFO   : the flag for use of LIBINT has been found!

================================================================================
                                       INPUT FILE
================================================================================
NAME = 4689_+.inp
|  1> ! NORI PBE0 def2-TZVP UseSym TightOPT Freq TightSCF Grid3 FinalGrid5 XYZFile
|  2> % pal
|  3>     nprocs 8
|  4> end
|  5> %method
|  6>     SymThresh 5.0e-2
|  7> end
|  8> % geom 
|  9>     MaxIter 10
| 10> end 
| 11> % maxcore 2000
| 12> % output
| 13>     printlevel mini
| 14>     print[ P_Basis ] 0
| 15>     print[ P_SCFInfo ] 1
| 16>     print[ P_SCFIterInfo ] 1
| 17>     print[ P_OrbEn ] 0
| 18>     print[ P_Cartesian ] 0
| 19> end
| 20> % elprop
| 21>     Dipole false
| 22> end
| 23> *xyz 1 1
| 24>  C        0.8431385675     0.0479522854    -0.2162864648 
| 25>  C        2.2819538706    -0.2794477133     0.0495579110 
| 26>  C        3.0922182064    -0.9752846862    -0.9707721638 
| 27>  N        3.2671641782     0.4823091199    -0.7731162619 
| 28>  C        2.6666434732    -0.3791130816     1.4989359583 
| 29>  C        4.0236363139    -0.2356290455     2.0141274915 
| 30>  O        3.0853793792     0.8275756615     2.0948915361 
| 31>  H        0.6392768402     0.1750004996    -1.2814877583 
| 32>  H        0.5505882742     0.9529262154     0.3192394929 
| 33>  H        0.2225909453    -0.7753370403     0.1430411032 
| 34>  H        3.9478655173    -1.5638409249    -0.6652317976 
| 35>  H        2.6438238692    -1.2399902346    -1.9204548507 
| 36>  H        2.9029372686     1.1154434690    -1.4770751678 
| 37>  H        4.1013414364     0.8249109391    -0.3064044913 
| 38>  H        1.9555497748    -0.9678915184     2.0758044595 
| 39>  H        4.8762737528    -0.0710985247     1.3549451190 
| 40>  H        4.2770383322    -0.7119554205     2.9560358848 
| 41> *
| 42> 
| 43>                          ****END OF INPUT****
================================================================================

The point group is C1 - hence turning off symmetry
If this is a round-off problem, please increase the symmetry
        detection tolerance (%method SymThresh)


                       *****************************
                       * Geometry Optimization Run *
                       *****************************

Geometry optimization settings:
Update method            Update   .... BFGS
Choice of coordinates    CoordSys .... Redundant Internals
Initial Hessian          InHess   .... Almoef's Model

Convergence Tolerances:
Energy Change            TolE     ....  1.0000e-06 Eh
Max. Gradient            TolMAXG  ....  1.0000e-04 Eh/bohr
RMS Gradient             TolRMSG  ....  3.0000e-05 Eh/bohr
Max. Displacement        TolMAXD  ....  1.0000e-03 bohr
RMS Displacement         TolRMSD  ....  6.0000e-04 bohr

------------------------------------------------------------------------------
                        ORCA OPTIMIZATION COORDINATE SETUP
------------------------------------------------------------------------------

The optimization will be done in new redundant internal coordinates
Making redundant internal coordinates   ...  (new redundants) done
Evaluating the initial hessian          ...  (Almloef) done
Evaluating the coordinates              ...  done
Calculating the B-matrix                .... done
Calculating the G-matrix                .... done
Diagonalizing the G-matrix              .... done
The first mode is                       ....   64
The number of degrees of freedom        ....   45

    -----------------------------------------------------------------
                    Redundant Internal Coordinates


    -----------------------------------------------------------------
         Definition                    Initial Value    Approx d2E/dq
    -----------------------------------------------------------------
      1. B(C   1,C   0)                  1.4994         0.418096   
      2. B(C   2,C   1)                  1.4771         0.453727   
      3. B(N   3,C   1)                  1.4926         0.383940   
      4. B(N   3,C   2)                  1.4813         0.400138   
      5. B(C   4,C   1)                  1.5029         0.412727   
      6. B(C   5,C   4)                  1.4586         0.485660   
      7. B(O   6,C   4)                  1.4095         0.520973   
      8. B(O   6,C   5)                  1.4203         0.500649   
      9. B(H   7,C   0)                  1.0919         0.357530   
     10. B(H   8,C   0)                  1.0915         0.358134   
     11. B(H   9,C   0)                  1.0918         0.357742   
     12. B(H  10,C   2)                  1.0825         0.370110   
     13. B(H  11,C   2)                  1.0831         0.369396   
     14. B(H  12,N   3)                  1.0144         0.425715   
     15. B(H  13,N   3)                  1.0154         0.424201   
     16. B(H  14,C   4)                  1.0886         0.361931   
     17. B(H  15,C   5)                  1.0902         0.359807   
     18. B(H  16,C   5)                  1.0855         0.366114   
     19. A(H   7,C   0,H   9)          107.6186         0.290213   
     20. A(C   1,C   0,H   9)          108.8090         0.330034   
     21. A(C   1,C   0,H   7)          112.1806         0.330002   
     22. A(H   7,C   0,H   8)          109.3970         0.290263   
     23. A(H   8,C   0,H   9)          108.1435         0.290290   
     24. A(C   1,C   0,H   8)          110.5644         0.330094   
     25. A(C   2,C   1,N   3)           59.8406         0.375099   
     26. A(C   0,C   1,C   4)          115.5381         0.376854   
     27. A(C   2,C   1,C   4)          119.6388         0.382232   
     28. A(C   0,C   1,N   3)          115.1038         0.369851   
     29. A(N   3,C   1,C   4)          113.3566         0.369031   
     30. A(C   0,C   1,C   2)          120.4507         0.383091   
     31. A(H  10,C   2,H  11)          116.2215         0.293271   
     32. A(N   3,C   2,H  11)          113.9783         0.327411   
     33. A(C   1,C   2,H  11)          119.5862         0.336325   
     34. A(N   3,C   2,H  10)          113.8266         0.327515   
     35. A(C   1,C   2,H  10)          119.6525         0.336433   
     36. A(C   1,C   2,N   3)           60.5980         0.377787   
     37. A(C   2,N   3,H  13)          119.3642         0.332127   
     38. A(C   1,N   3,H  13)          117.4603         0.329864   
     39. A(C   2,N   3,H  12)          118.6290         0.332323   
     40. A(C   1,N   3,H  12)          117.6474         0.330058   
     41. A(C   1,N   3,C   2)           59.5614         0.364786   
     42. A(H  12,N   3,H  13)          113.7870         0.301511   
     43. A(C   5,C   4,H  14)          118.2778         0.339004   
     44. A(C   1,C   4,H  14)          112.3159         0.329964   
     45. A(C   5,C   4,O   6)           59.3385         0.400317   
     46. A(C   1,C   4,O   6)          115.2801         0.389060   
     47. A(O   6,C   4,H  14)          115.6606         0.340918   
     48. A(C   1,C   4,C   5)          124.9082         0.386781   
     49. A(C   4,C   5,O   6)           58.6092         0.397526   
     50. A(H  15,C   5,H  16)          114.0985         0.291560   
     51. A(O   6,C   5,H  16)          115.6808         0.339309   
     52. A(C   4,C   5,H  16)          118.7190         0.339655   
     53. A(O   6,C   5,H  15)          115.9798         0.338327   
     54. A(C   4,C   5,H  15)          121.9305         0.338672   
     55. A(C   4,O   6,C   5)           62.0523         0.399887   
     56. D(C   2,C   1,C   0,H   8)   -149.9315         0.013833   
     57. D(N   3,C   1,C   0,H   8)    -81.5333         0.013833   
     58. D(N   3,C   1,C   0,H   9)    159.8377         0.013833   
     59. D(C   4,C   1,C   0,H   9)    -65.0032         0.013833   
     60. D(C   2,C   1,C   0,H   9)     91.4394         0.013833   
     61. D(C   4,C   1,C   0,H   7)    176.0386         0.013833   
     62. D(N   3,C   1,C   0,H   7)     40.8795         0.013833   
     63. D(C   4,C   1,C   0,H   8)     53.6258         0.013833   
     64. D(C   2,C   1,C   0,H   7)    -27.5187         0.013833   
     65. D(N   3,C   2,C   1,C   4)   -101.3578         0.016262   
     66. D(H  10,C   2,C   1,C   0)   -154.5600         0.016262   
     67. D(H  10,C   2,C   1,C   4)      0.9267         0.016262   
     68. D(H  10,C   2,C   1,N   3)    102.2845         0.016262   
     69. D(H  11,C   2,C   1,C   4)    156.1403         0.016262   
     70. D(H  11,C   2,C   1,N   3)   -102.5019         0.016262   
     71. D(N   3,C   2,C   1,C   0)    103.1555         0.016262   
     72. D(H  11,C   2,C   1,C   0)      0.6536         0.016262   
     73. D(H  12,N   3,C   2,H  11)      4.6895         0.014632   
     74. D(H  12,N   3,C   2,H  10)    141.1620         0.014632   
     75. D(H  12,N   3,C   2,C   1)   -107.0027         0.014632   
     76. D(C   1,N   3,C   2,H  10)   -111.8352         0.014632   
     77. D(H  13,N   3,C   1,C   4)      2.2352         0.013492   
     78. D(H  13,N   3,C   1,C   2)   -109.6088         0.013492   
     79. D(H  13,N   3,C   1,C   0)    138.3641         0.013492   
     80. D(H  12,N   3,C   1,C   4)   -139.5201         0.013492   
     81. D(C   1,N   3,C   2,H  11)    111.6922         0.014632   
     82. D(H  12,N   3,C   1,C   0)     -3.3912         0.013492   
     83. D(C   2,N   3,C   1,C   4)    111.8439         0.013492   
     84. D(C   2,N   3,C   1,C   0)   -112.0271         0.013492   
     85. D(H  13,N   3,C   2,C   1)    106.4444         0.014632   
     86. D(H  12,N   3,C   1,C   2)    108.6359         0.013492   
     87. D(H  13,N   3,C   2,H  11)   -141.8634         0.014632   
     88. D(H  13,N   3,C   2,H  10)     -5.3908         0.014632   
     89. D(H  14,C   4,C   1,N   3)   -177.9388         0.013489   
     90. D(H  14,C   4,C   1,C   2)   -110.5160         0.013489   
     91. D(H  14,C   4,C   1,C   0)     46.1305         0.013489   
     92. D(O   6,C   4,C   1,N   3)     46.7023         0.013489   
     93. D(O   6,C   4,C   1,C   2)    114.1252         0.013489   
     94. D(O   6,C   4,C   1,C   0)    -89.2284         0.013489   
     95. D(C   5,C   4,C   1,N   3)    -22.3108         0.013489   
     96. D(C   5,C   4,C   1,C   2)     45.1121         0.013489   
     97. D(C   5,C   4,C   1,C   0)   -158.2415         0.013489   
     98. D(H  16,C   5,C   4,H  14)     -0.4837         0.018654   
     99. D(H  16,C   5,C   4,O   6)    104.1548         0.018654   
    100. D(H  16,C   5,C   4,C   1)   -154.7949         0.018654   
    101. D(H  15,C   5,C   4,H  14)    152.3940         0.018654   
    102. D(H  15,C   5,C   4,O   6)   -102.9675         0.018654   
    103. D(H  15,C   5,C   4,C   1)     -1.9171         0.018654   
    104. D(O   6,C   5,C   4,H  14)   -104.6385         0.018654   
    105. D(O   6,C   5,C   4,C   1)    101.0504         0.018654   
    106. D(C   4,O   6,C   5,H  16)   -109.3411         0.019817   
    107. D(C   4,O   6,C   5,H  15)    113.0717         0.019817   
    108. D(C   5,O   6,C   4,H  14)    109.0376         0.021522   
    109. D(C   5,O   6,C   4,C   1)   -117.1129         0.021522   
    -----------------------------------------------------------------

Number of atoms                         .... 17
Number of degrees of freedom            .... 109

         *************************************************************
         *                GEOMETRY OPTIMIZATION CYCLE   1            *
         *************************************************************


           ************************************************************
           *        Program running with 8 parallel MPI-processes     *
           *              working on a common directory               *
           ************************************************************
           ************************************************************
           *              Shut down parallel processing               *
           ************************************************************


           ************************************************************
           *        Program running with 8 parallel MPI-processes     *
           *              working on a common directory               *
           ************************************************************
------------
SCF SETTINGS
------------
Hamiltonian:
 Density Functional     Method          .... DFT(GTOs)
 Exchange Functional    Exchange        .... PBE
   PBE kappa parameter  XKappa          ....  0.804000
 Correlation Functional Correlation     .... PBE
 LDA part of GGA corr.  LDAOpt          .... PW91-LDA
 Gradients option       PostSCFGGA      .... off
 Hybrid DFT is turned on
   Fraction HF Exchange ScalHFX         ....  0.250000
   Scaling of DF-GGA-X  ScalDFX         ....  0.750000
   Scaling of DF-GGA-C  ScalDFC         ....  1.000000
   Scaling of DF-LDA-C  ScalLDAC        ....  1.000000
   Perturbative correction              ....  0.000000
   NL short-range parameter             ....  6.900000


General Settings:
 Integral files         IntName         .... 4689_+
 Hartree-Fock type      HFTyp           .... RHF
 Total Charge           Charge          ....    1
 Multiplicity           Mult            ....    1
 Number of Electrons    NEL             ....   54
 Basis Dimension        Dim             ....  277
 Nuclear Repulsion      ENuc            ....    328.2581299344 Eh

Convergence Acceleration:
 DIIS                   CNVDIIS         .... on
   Start iteration      DIISMaxIt       ....    12
   Startup error        DIISStart       ....  0.200000
   # of expansion vecs  DIISMaxEq       ....     5
   Bias factor          DIISBfac        ....   1.050
   Max. coefficient     DIISMaxC        ....  10.000
 Newton-Raphson         CNVNR           .... off
 SOSCF                  CNVSOSCF        .... on
   Start iteration      SOSCFMaxIt      ....   150
   Startup grad/error   SOSCFStart      ....  0.003300
 Level Shifting         CNVShift        .... on
   Level shift para.    LevelShift      ....    0.2500
   Turn off err/grad.   ShiftErr        ....    0.0010
 Zerner damping         CNVZerner       .... off
 Static damping         CNVDamp         .... on
   Fraction old density DampFac         ....    0.7000
   Max. Damping (<1)    DampMax         ....    0.9800
   Min. Damping (>=0)   DampMin         ....    0.0000
   Turn off err/grad.   DampErr         ....    0.1000
 Fernandez-Rico         CNVRico         .... off

SCF Procedure:
 Maximum # iterations   MaxIter         ....   125
 SCF integral mode      SCFMode         .... Direct
   Integral package                     .... LIBINT
 Reset frequeny         DirectResetFreq ....    20
 Integral Threshold     Thresh          ....  2.500e-11 Eh
 Primitive CutOff       TCut            ....  2.500e-12 Eh

Convergence Tolerance:
 Convergence Check Mode ConvCheckMode   .... Total+1el-Energy
 Energy Change          TolE            ....  1.000e-08 Eh
 1-El. energy change                    ....  1.000e-05 Eh
 Orbital Gradient       TolG            ....  1.000e-05
 Orbital Rotation angle TolX            ....  1.000e-05
 DIIS Error             TolErr          ....  5.000e-07


Diagonalization of the overlap matrix:
Smallest eigenvalue                        ... 7.009e-05
Time for diagonalization                   ...    0.018 sec
Threshold for overlap eigenvalues          ... 1.000e-08
Number of eigenvalues below threshold      ... 0
Time for construction of square roots      ...    0.008 sec
Total time needed                          ...    0.026 sec

-------------------
DFT GRID GENERATION
-------------------

General Integration Accuracy     IntAcc      ...  4.340
Radial Grid Type                 RadialGrid  ... Gauss-Chebyshev
Angular Grid (max. acc.)         AngularGrid ... Lebedev-194
Angular grid pruning method      GridPruning ... 3 (G Style)
Weight generation scheme         WeightScheme... Becke
Basis function cutoff            BFCut       ...    1.0000e-11
Integration weight cutoff        WCut        ...    1.0000e-14
Grids for H and He will be reduced by one unit

# of grid points (after initial pruning)     ...  38362 (   0.0 sec)
# of grid points (after weights+screening)   ...  35038 (   0.0 sec)
nearest neighbour list constructed           ...    0.0 sec
Grid point re-assignment to atoms done       ...    0.0 sec
Grid point division into batches done        ...    0.1 sec
Reduced shell lists constructed in    0.1 sec

Total number of grid points                  ...    35038
Total number of batches                      ...      557
Average number of points per batch           ...       62
Average number of grid points per atom       ...     2061
Average number of shells per batch           ...    97.15 (83.04%)
Average number of basis functions per batch  ...   239.41 (86.43%)
Average number of large shells per batch     ...    81.62 (84.01%)
Average number of large basis fcns per batch ...   200.66 (83.82%)
Maximum spatial batch extension              ...   3.36,  2.34,  2.32 au
Average spatial batch extension              ...   0.16,  0.16,  0.16 au

Time for grid setup =    0.172 sec

Loading Hartree-Fock densities                     ... done
Calculating cut-offs                               ... done
Setting up the integral package                    ... done
Initializing the effective Hamiltonian             ... done
Starting the Coulomb interaction                   ... done (   0.0 sec)
Reading the grid                                   ... done
Mapping shells                                     ... done
Starting the XC term evaluation                    ... done (   0.2 sec)
  promolecular density results
     # of electrons  =     54.995513868
     EX              =    -43.296397027
     EC              =     -1.833298161
     EX+EC           =    -45.129695187
Transforming the Hamiltonian                       ... done (   0.0 sec)
Diagonalizing the Hamiltonian                      ... done (   0.0 sec)
Back transforming the eigenvectors                 ... done (   0.0 sec)
Now organizing SCF variables                       ... done
--------------
SCF ITERATIONS
--------------
ITER       Energy         Delta-E        Max-DP      RMS-DP      [F,P]     Damp
               ***  Starting incremental Fock matrix formation  ***
  0   -325.8318385906   0.000000000000 0.03315613  0.00084029  0.1587944 0.7000
  1   -325.8848625143  -0.053023923716 0.02002043  0.00066504  0.0853992 0.7000
                               ***Turning on DIIS***
  2   -325.9081825589  -0.023320044541 0.03984051  0.00126437  0.0351146 0.0000
  3   -325.9447778830  -0.036595324187 0.01558424  0.00042215  0.0444353 0.0000
  4   -325.9518876742  -0.007109791162 0.00429429  0.00011144  0.0089700 0.0000
  5   -325.9521505542  -0.000262879984 0.00193827  0.00004606  0.0056806 0.0000
                      *** Initiating the SOSCF procedure ***
                           *** Shutting down DIIS ***
                      *** Re-Reading the Fockian *** 
                      *** Removing any level shift *** 
ITER      Energy       Delta-E        Grad      Rot      Max-DP    RMS-DP
  6   -325.95220283  -0.0000522771  0.000110  0.000110  0.000865  0.000023
               *** Restarting incremental Fock matrix formation ***
  7   -325.95220406  -0.0000012248  0.000045  0.000085  0.000177  0.000004
  8   -325.95220400   0.0000000527  0.000055  0.000049  0.000068  0.000002
  9   -325.95220422  -0.0000002124  0.000010  0.000018  0.000032  0.000001
 10   -325.95220421   0.0000000032  0.000014  0.000012  0.000019  0.000000
                 **** Energy Check signals convergence ****
              ***Rediagonalizing the Fockian in SOSCF/NRSCF***

               *****************************************************
               *                     SUCCESS                       *
               *           SCF CONVERGED AFTER  11 CYCLES          *
               *****************************************************

Setting up the final grid:

General Integration Accuracy     IntAcc      ...  5.010
Radial Grid Type                 RadialGrid  ... Gauss-Chebyshev
Angular Grid (max. acc.)         AngularGrid ... Lebedev-434
Angular grid pruning method      GridPruning ... 3 (G Style)
Weight generation scheme         WeightScheme... Becke
Basis function cutoff            BFCut       ...    1.0000e-11
Integration weight cutoff        WCut        ...    1.0000e-14
Grids for H and He will be reduced by one unit

# of grid points (after initial pruning)     ... 141842 (   0.0 sec)
# of grid points (after weights+screening)   ... 128090 (   0.1 sec)
nearest neighbour list constructed           ...    0.0 sec
Grid point re-assignment to atoms done       ...    0.0 sec
Grid point division into batches done        ...    0.8 sec
Reduced shell lists constructed in    1.0 sec

Total number of grid points                  ...   128090
Total number of batches                      ...     2009
Average number of points per batch           ...       63
Average number of grid points per atom       ...     7535
Average number of shells per batch           ...    95.82 (81.90%)
Average number of basis functions per batch  ...   236.26 (85.29%)
Average number of large shells per batch     ...    78.98 (82.43%)
Average number of large basis fcns per batch ...   193.79 (82.02%)
Maximum spatial batch extension              ...   3.29,  1.89,  2.66 au
Average spatial batch extension              ...   0.11,  0.10,  0.11 au

Final grid set up in    1.1 sec
Final integration                            ... done (   0.6 sec)
Change in XC energy                          ...     0.000490751
Integrated number of electrons               ...    53.999919044
Previous integrated no of electrons          ...    54.000567451
Total Energy       :         -325.95171347 Eh           -8869.59705 eV
  Last Energy change         ...   -8.1854e-09  Tolerance :   1.0000e-08
  Last MAX-Density change    ...    4.9233e-06  Tolerance :   1.0000e-07
             **** THE GBW FILE WAS UPDATED (4689_+.gbw) ****
             **** DENSITY FILE WAS UPDATED (4689_+.scfp.tmp) ****
             **** ENERGY FILE WAS UPDATED (4689_+.en.tmp) ****
Total SCF time: 0 days 0 hours 0 min 58 sec 
           ************************************************************
           *              Shut down parallel processing               *
           ************************************************************

-------------------------   --------------------
FINAL SINGLE POINT ENERGY      -325.951713469627
-------------------------   --------------------



           ************************************************************
           *        Program running with 8 parallel MPI-processes     *
           *              working on a common directory               *
           ************************************************************
------------------------------------------------------------------------------
                         ORCA SCF GRADIENT CALCULATION
------------------------------------------------------------------------------

Gradient of the Kohn-Sham DFT energy:
Kohn-Sham wavefunction type      ... RKS
Hartree-Fock exchange scaling    ...    0.250
Number of operators              ...    1
Number of atoms                  ...   17
Basis set dimensions             ...  277
Integral neglect threshold       ... 2.5e-11
Integral primitive cutoff        ... 2.5e-12

Nuclear repulsion gradient       ... done
One Electron Gradient            ... done
Pre-screening matrix             ... done
Starting the two electron gradient:
Two electron gradient done
Exchange-correlation gradient    ... done

------------------
CARTESIAN GRADIENT
------------------

   1   C   :    0.000255908    0.000035052   -0.000074437
   2   C   :    0.000374277    0.000406767    0.000327445
   3   C   :   -0.000014502   -0.000004168    0.000082002
   4   N   :   -0.000489417   -0.000149929   -0.000361997
   5   C   :   -0.000146389    0.000032267   -0.000126299
   6   C   :    0.000348535   -0.000068500    0.000491729
   7   O   :   -0.000263875   -0.000019509   -0.000103202
   8   H   :   -0.000087059    0.000006864    0.000063775
   9   H   :   -0.000023527    0.000039908    0.000023758
  10   H   :   -0.000075067   -0.000007494    0.000027540
  11   H   :    0.000002484   -0.000084750   -0.000116562
  12   H   :   -0.000045509   -0.000049590    0.000050475
  13   H   :    0.000304012   -0.000128260    0.000147678
  14   H   :   -0.000053943    0.000002460    0.000009646
  15   H   :   -0.000108246   -0.000318878   -0.000124271
  16   H   :   -0.000053883    0.000130669   -0.000286233
  17   H   :    0.000076203    0.000177092   -0.000031050

Norm of the cartesian gradient     ...    0.001350316
RMS gradient                       ...    0.000189082
MAX gradient                       ...    0.000491729

-------
TIMINGS
-------

Total SCF gradient time            ...       28.061 sec

One electron gradient       ....       0.089 sec  (  0.3%)
Prescreening matrices       ....       0.232 sec  (  0.8%)
Two electron gradient       ....      23.994 sec  ( 85.5%)
XC gradient                 ....       2.834 sec  ( 10.1%)
           ************************************************************
           *              Shut down parallel processing               *
           ************************************************************
------------------------------------------------------------------------------
                         ORCA GEOMETRY RELAXATION STEP
------------------------------------------------------------------------------

Reading the OPT-File                    .... done
Getting information on internals        .... done
Copying old internal coords+grads       .... done
Making the new internal coordinates     .... (new redundants).... done
Validating the new internal coordinates .... (new redundants).... done
Calculating the B-matrix                .... done
Calculating the G,G- and P matrices     .... done
Transforming gradient to internals      .... done
Projecting the internal gradient        .... done
Number of atoms                         ....  17
Number of internal coordinates          .... 109
Current Energy                          ....  -325.951713470 Eh
Current gradient norm                   ....     0.001350316 Eh/bohr
Maximum allowed component of the step   ....  0.300
Current trust radius                    ....  0.300
Evaluating the initial hessian          ....  (Almloef) done
Projecting the Hessian                  .... done
Forming the augmented Hessian           .... done
Diagonalizing the augmented Hessian     .... done
Last element of RFO vector              ....  0.999129979
Lowest eigenvalues of augmented Hessian:
 -0.000028117  0.013511703  0.013833356  0.030616695  0.037031527
Length of the computed step             ....  0.041741057
The final length of the internal step   ....  0.041741057
Converting the step to cartesian space:
 Initial RMS(Int)=    0.0039980681
Transforming coordinates:
 Iter   0:  RMS(Cart)=    0.0094117993 RMS(Int)=    0.0039999738
 Iter   1:  RMS(Cart)=    0.0000497664 RMS(Int)=    0.0000309875
 Iter   2:  RMS(Cart)=    0.0000004994 RMS(Int)=    0.0000002095
 Iter   3:  RMS(Cart)=    0.0000000053 RMS(Int)=    0.0000000033
done
Storing new coordinates                 .... done

                                .--------------------.
          ----------------------|Geometry convergence|---------------------
          Item                value                 Tolerance   Converged
          -----------------------------------------------------------------
          RMS gradient        0.00010118            0.00003000      NO
          MAX gradient        0.00030772            0.00010000      NO
          RMS step            0.00399807            0.00060000      NO
          MAX step            0.01507013            0.00100000      NO
          ....................................................
          Max(Bonds)      0.0002      Max(Angles)    0.09
          Max(Dihed)        0.86      Max(Improp)    0.00
          -----------------------------------------------------------------

The optimization has not yet converged - more geometry cycles are needed


    ---------------------------------------------------------------------------
                         Redundant Internal Coordinates
                            (Angstroem and degrees)

        Definition                    Value    dE/dq     Step     New-Value
    ----------------------------------------------------------------------------
     1. B(C   1,C   0)                1.4994  0.000043 -0.0001    1.4993   
     2. B(C   2,C   1)                1.4771  0.000044 -0.0001    1.4770   
     3. B(N   3,C   1)                1.4926 -0.000057  0.0000    1.4926   
     4. B(N   3,C   2)                1.4813 -0.000074  0.0002    1.4815   
     5. B(C   4,C   1)                1.5029 -0.000068  0.0001    1.5030   
     6. B(C   5,C   4)                1.4586  0.000019 -0.0001    1.4585   
     7. B(O   6,C   4)                1.4095 -0.000131  0.0001    1.4096   
     8. B(O   6,C   5)                1.4203 -0.000080  0.0002    1.4205   
     9. B(H   7,C   0)                1.0919 -0.000090  0.0001    1.0921   
    10. B(H   8,C   0)                1.0915  0.000036 -0.0001    1.0914   
    11. B(H   9,C   0)                1.0918  0.000070 -0.0001    1.0917   
    12. B(H  10,C   2)                1.0825  0.000069 -0.0001    1.0824   
    13. B(H  11,C   2)                1.0831 -0.000067  0.0001    1.0832   
    14. B(H  12,N   3)                1.0144  0.000038 -0.0000    1.0144   
    15. B(H  13,N   3)                1.0154 -0.000017  0.0000    1.0154   
    16. B(H  14,C   4)                1.0886  0.000031 -0.0000    1.0886   
    17. B(H  15,C   5)                1.0902 -0.000022  0.0000    1.0903   
    18. B(H  16,C   5)                1.0855 -0.000158  0.0002    1.0857   
    19. A(H   7,C   0,H   9)          107.62 -0.000013    0.00    107.62   
    20. A(C   1,C   0,H   9)          108.81 -0.000056    0.01    108.82   
    21. A(C   1,C   0,H   7)          112.18  0.000083   -0.02    112.16   
    22. A(H   7,C   0,H   8)          109.40 -0.000031   -0.00    109.39   
    23. A(H   8,C   0,H   9)          108.14 -0.000020    0.01    108.16   
    24. A(C   1,C   0,H   8)          110.56  0.000031   -0.01    110.56   
    25. A(C   2,C   1,N   3)           59.84 -0.000027    0.01     59.85   
    26. A(C   0,C   1,C   4)          115.54  0.000066   -0.02    115.52   
    27. A(C   2,C   1,C   4)          119.64 -0.000121    0.02    119.66   
    28. A(C   0,C   1,N   3)          115.10  0.000117   -0.07    115.03   
    29. A(N   3,C   1,C   4)          113.36 -0.000142    0.06    113.42   
    30. A(C   0,C   1,C   2)          120.45  0.000059    0.01    120.46   
    31. A(H  10,C   2,H  11)          116.22 -0.000061    0.02    116.24   
    32. A(N   3,C   2,H  11)          113.98  0.000079   -0.01    113.96   
    33. A(C   1,C   2,H  11)          119.59  0.000048    0.01    119.59   
    34. A(N   3,C   2,H  10)          113.83 -0.000021   -0.00    113.82   
    35. A(C   1,C   2,H  10)          119.65  0.000008   -0.02    119.63   
    36. A(C   1,C   2,N   3)           60.60 -0.000017    0.00     60.60   
    37. A(C   2,N   3,H  13)          119.36 -0.000069    0.02    119.38   
    38. A(C   1,N   3,H  13)          117.46 -0.000063    0.03    117.49   
    39. A(C   2,N   3,H  12)          118.63  0.000127   -0.04    118.59   
    40. A(C   1,N   3,H  12)          117.65  0.000130   -0.06    117.59   
    41. A(C   1,N   3,C   2)           59.56  0.000045   -0.01     59.55   
    42. A(H  12,N   3,H  13)          113.79 -0.000091    0.03    113.82   
    43. A(C   5,C   4,H  14)          118.28  0.000056   -0.02    118.26   
    44. A(C   1,C   4,H  14)          112.32  0.000209   -0.05    112.26   
    45. A(C   5,C   4,O   6)           59.34 -0.000012    0.01     59.35   
    46. A(C   1,C   4,O   6)          115.28 -0.000093    0.01    115.29   
    47. A(O   6,C   4,H  14)          115.66  0.000008   -0.02    115.64   
    48. A(C   1,C   4,C   5)          124.91 -0.000279    0.09    125.00   
    49. A(C   4,C   5,O   6)           58.61 -0.000044    0.00     58.61   
    50. A(H  15,C   5,H  16)          114.10  0.000163   -0.04    114.06   
    51. A(O   6,C   5,H  16)          115.68 -0.000011    0.02    115.70   
    52. A(C   4,C   5,H  16)          118.72  0.000020   -0.02    118.70   
    53. A(O   6,C   5,H  15)          115.98 -0.000017   -0.03    115.95   
    54. A(C   4,C   5,H  15)          121.93 -0.000208    0.08    122.01   
    55. A(C   4,O   6,C   5)           62.05  0.000056   -0.01     62.04   
    56. D(C   2,C   1,C   0,H   8)   -149.93 -0.000038   -0.01   -149.94   
    57. D(N   3,C   1,C   0,H   8)    -81.53 -0.000002   -0.02    -81.55   
    58. D(N   3,C   1,C   0,H   9)    159.84  0.000038   -0.04    159.80   
    59. D(C   4,C   1,C   0,H   9)    -65.00  0.000022   -0.05    -65.05   
    60. D(C   2,C   1,C   0,H   9)     91.44  0.000002   -0.03     91.41   
    61. D(C   4,C   1,C   0,H   7)    176.04  0.000024   -0.05    175.99   
    62. D(N   3,C   1,C   0,H   7)     40.88  0.000040   -0.04     40.84   
    63. D(C   4,C   1,C   0,H   8)     53.63 -0.000018   -0.03     53.59   
    64. D(C   2,C   1,C   0,H   7)    -27.52  0.000004   -0.03    -27.55   
    65. D(N   3,C   2,C   1,C   4)   -101.36  0.000132   -0.07   -101.43   
    66. D(H  10,C   2,C   1,C   0)   -154.56  0.000069   -0.08   -154.64   
    67. D(H  10,C   2,C   1,C   4)      0.93  0.000095   -0.06      0.86   
    68. D(H  10,C   2,C   1,N   3)    102.28 -0.000037    0.01    102.29   
    69. D(H  11,C   2,C   1,C   4)    156.14  0.000064   -0.05    156.09   
    70. D(H  11,C   2,C   1,N   3)   -102.50 -0.000068    0.02   -102.48   
    71. D(N   3,C   2,C   1,C   0)    103.16  0.000106   -0.09    103.07   
    72. D(H  11,C   2,C   1,C   0)      0.65  0.000039   -0.07      0.59   
    73. D(H  12,N   3,C   2,H  11)      4.69 -0.000102    0.08      4.77   
    74. D(H  12,N   3,C   2,H  10)    141.16 -0.000133    0.09    141.25   
    75. D(H  12,N   3,C   2,C   1)   -107.00 -0.000119    0.06   -106.94   
    76. D(C   1,N   3,C   2,H  10)   -111.84 -0.000013    0.02   -111.81   
    77. D(H  13,N   3,C   1,C   4)      2.24 -0.000044   -0.01      2.23   
    78. D(H  13,N   3,C   1,C   2)   -109.61  0.000041   -0.01   -109.62   
    79. D(H  13,N   3,C   1,C   0)    138.36  0.000030   -0.05    138.31   
    80. D(H  12,N   3,C   1,C   4)   -139.52  0.000027   -0.02   -139.54   
    81. D(C   1,N   3,C   2,H  11)    111.69  0.000018    0.01    111.71   
    82. D(H  12,N   3,C   1,C   0)     -3.39  0.000101   -0.07     -3.46   
    83. D(C   2,N   3,C   1,C   4)    111.84 -0.000085    0.00    111.84   
    84. D(C   2,N   3,C   1,C   0)   -112.03 -0.000011   -0.05   -112.07   
    85. D(H  13,N   3,C   2,C   1)    106.44 -0.000028    0.02    106.47   
    86. D(H  12,N   3,C   1,C   2)    108.64  0.000112   -0.02    108.62   
    87. D(H  13,N   3,C   2,H  11)   -141.86 -0.000010    0.04   -141.83   
    88. D(H  13,N   3,C   2,H  10)     -5.39 -0.000041    0.05     -5.35   
    89. D(H  14,C   4,C   1,N   3)   -177.94  0.000308   -0.86   -178.80   
    90. D(H  14,C   4,C   1,C   2)   -110.52  0.000186   -0.82   -111.34   
    91. D(H  14,C   4,C   1,C   0)     46.13  0.000211   -0.80     45.33   
    92. D(O   6,C   4,C   1,N   3)     46.70  0.000166   -0.78     45.92   
    93. D(O   6,C   4,C   1,C   2)    114.13  0.000044   -0.74    113.39   
    94. D(O   6,C   4,C   1,C   0)    -89.23  0.000069   -0.72    -89.94   
    95. D(C   5,C   4,C   1,N   3)    -22.31  0.000300   -0.82    -23.13   
    96. D(C   5,C   4,C   1,C   2)     45.11  0.000178   -0.77     44.34   
    97. D(C   5,C   4,C   1,C   0)   -158.24  0.000203   -0.75   -158.99   
    98. D(H  16,C   5,C   4,H  14)     -0.48 -0.000020    0.04     -0.44   
    99. D(H  16,C   5,C   4,O   6)    104.15 -0.000042    0.03    104.18   
   100. D(H  16,C   5,C   4,C   1)   -154.79 -0.000039    0.00   -154.79   
   101. D(H  15,C   5,C   4,H  14)    152.39 -0.000036    0.09    152.49   
   102. D(H  15,C   5,C   4,O   6)   -102.97 -0.000058    0.08   -102.89   
   103. D(H  15,C   5,C   4,C   1)     -1.92 -0.000055    0.05     -1.86   
   104. D(O   6,C   5,C   4,H  14)   -104.64  0.000021    0.02   -104.62   
   105. D(O   6,C   5,C   4,C   1)    101.05  0.000002   -0.03    101.02   
   106. D(C   4,O   6,C   5,H  16)   -109.34 -0.000016    0.03   -109.32   
   107. D(C   4,O   6,C   5,H  15)    113.07 -0.000255    0.11    113.18   
   108. D(C   5,O   6,C   4,H  14)    109.04  0.000059   -0.01    109.03   
   109. D(C   5,O   6,C   4,C   1)   -117.11  0.000294   -0.10   -117.22   
    ----------------------------------------------------------------------------

         *************************************************************
         *                GEOMETRY OPTIMIZATION CYCLE   2            *
         *************************************************************
---------------------------------
CARTESIAN COORDINATES (ANGSTROEM)
---------------------------------
  C     -0.547521    1.748500   -0.937111
  C     -0.175479    0.334358   -0.605935
  C      0.252288   -0.596157   -1.670155
  N      1.270210    0.004949   -0.777187
  C     -0.765604   -0.209695    0.664749
  C     -0.237844   -1.344763    1.413276
  O      0.010643   -0.007830    1.823886
  H     -0.035015    2.110806   -1.830822
  H     -0.324442    2.410014   -0.098141
  H     -1.620999    1.794271   -1.130309
  H      0.124429   -1.662134   -1.532248
  H      0.305695   -0.248840   -2.694728
  H      1.875985    0.728500   -1.149331
  H      1.707905   -0.569140   -0.063089
  H     -1.824607    0.023385    0.760554
  H      0.630916   -1.908325    1.072240
  H     -0.914226   -1.913073    2.044401

----------------------------
CARTESIAN COORDINATES (A.U.)
----------------------------
  NO LB      ZA    FRAG    MASS        X           Y           Z
   0 C     6.0000    0    12.011         -1.034664942959867          3.304185922768527         -1.770883061846949
   1 C     6.0000    0    12.011         -0.331606903848609          0.631845180487214         -1.145050490341624
   2 C     6.0000    0    12.011          0.476755064226494         -1.126573651102651         -3.156136370858298
   3 N     7.0000    0    14.007          2.400348565807990          0.009351632599958         -1.468669780143042
   4 C     6.0000    0    12.011         -1.446781307653442         -0.396265551935006          1.256194041301503
   5 C     6.0000    0    12.011         -0.449460434486349         -2.541233922654255          2.670703705729923
   6 O     8.0000    0    15.999          0.020111858786347         -0.014795741150538          3.446644523447274
   7 H     1.0000    0     1.008         -0.066169360742199          3.988845305495141         -3.459751459448196
   8 H     1.0000    0     1.008         -0.613106368921239          4.554265627123473         -0.185458868657542
   9 H     1.0000    0     1.008         -3.063244809789632          3.390680382618576         -2.135974083416191
  10 H     1.0000    0     1.008          0.235136571671191         -3.140977929022535         -2.895528658115445
  11 H     1.0000    0     1.008          0.577679105453717         -0.470239583007504         -5.092297887757433
  12 H     1.0000    0     1.008          3.545097460186751          1.376665992590676         -2.171921531171225
  13 H     1.0000    0     1.008          3.227472268664556         -1.075518105774058         -0.119220136701753
  14 H     1.0000    0     1.008         -3.448007973756225          0.044191399690282          1.437238129885695
  15 H     1.0000    0     1.008          1.192259388522760         -3.606212231616375          2.026239049384670
  16 H     1.0000    0     1.008         -1.727637111346247         -3.615184380028230          3.863357667336163

--------------------------------
INTERNAL COORDINATES (ANGSTROEM)
--------------------------------
 C      0   0   0   0.000000     0.000     0.000
 C      1   0   0   1.499297     0.000     0.000
 C      2   1   0   1.476959   120.461     0.000
 N      3   2   1   1.481515    60.598   103.070
 C      2   1   3   1.502957   115.515   203.532
 C      5   2   1   1.458493   124.998   201.007
 O      5   2   1   1.409576   115.289   270.055
 H      1   2   3   1.092084   112.162   332.454
 H      1   2   3   1.091438   110.558   210.063
 H      1   2   3   1.091685   108.823    91.414
 H      3   2   1   1.082438   119.632   205.361
 H      3   2   1   1.083158   119.593     0.588
 H      4   3   2   1.014388   118.594   253.061
 H      4   3   2   1.015426   119.383   106.467
 H      5   2   1   1.088574   112.264    45.334
 H      6   5   2   1.090254   122.011   358.136
 H      6   5   2   1.085720   118.703   205.207

---------------------------
INTERNAL COORDINATES (A.U.)
---------------------------
 C      0   0   0   0.000000     0.000     0.000
 C      1   0   0   2.833260     0.000     0.000
 C      2   1   0   2.791049   120.461     0.000
 N      3   2   1   2.799657    60.598   103.070
 C      2   1   3   2.840176   115.515   203.532
 C      5   2   1   2.756152   124.998   201.007
 O      5   2   1   2.663713   115.289   270.055
 H      1   2   3   2.063739   112.162   332.454
 H      1   2   3   2.062518   110.558   210.063
 H      1   2   3   2.062985   108.823    91.414
 H      3   2   1   2.045512   119.632   205.361
 H      3   2   1   2.046871   119.593     0.588
 H      4   3   2   1.916915   118.594   253.061
 H      4   3   2   1.918877   119.383   106.467
 H      5   2   1   2.057107   112.264    45.334
 H      6   5   2   2.060281   122.011   358.136
 H      6   5   2   2.051714   118.703   205.207



           ************************************************************
           *        Program running with 8 parallel MPI-processes     *
           *              working on a common directory               *
           ************************************************************
           ************************************************************
           *              Shut down parallel processing               *
           ************************************************************


           ************************************************************
           *        Program running with 8 parallel MPI-processes     *
           *              working on a common directory               *
           ************************************************************

Diagonalization of the overlap matrix:
Smallest eigenvalue                        ... 6.946e-05
Time for diagonalization                   ...    0.018 sec
Threshold for overlap eigenvalues          ... 1.000e-08
Number of eigenvalues below threshold      ... 0
Time for construction of square roots      ...    0.008 sec
Total time needed                          ...    0.027 sec

-------------------
DFT GRID GENERATION
-------------------

General Integration Accuracy     IntAcc      ...  4.340
Radial Grid Type                 RadialGrid  ... Gauss-Chebyshev
Angular Grid (max. acc.)         AngularGrid ... Lebedev-194
Angular grid pruning method      GridPruning ... 3 (G Style)
Weight generation scheme         WeightScheme... Becke
Basis function cutoff            BFCut       ...    1.0000e-11
Integration weight cutoff        WCut        ...    1.0000e-14
Grids for H and He will be reduced by one unit

# of grid points (after initial pruning)     ...  38362 (   0.0 sec)
# of grid points (after weights+screening)   ...  35039 (   0.0 sec)
nearest neighbour list constructed           ...    0.0 sec
Grid point re-assignment to atoms done       ...    0.0 sec
Grid point division into batches done        ...    0.1 sec
Reduced shell lists constructed in    0.1 sec

Total number of grid points                  ...    35039
Total number of batches                      ...      558
Average number of points per batch           ...       62
Average number of grid points per atom       ...     2061
Average number of shells per batch           ...    97.21 (83.09%)
Average number of basis functions per batch  ...   239.30 (86.39%)
Average number of large shells per batch     ...    81.39 (83.73%)
Average number of large basis fcns per batch ...   200.41 (83.75%)
Maximum spatial batch extension              ...   3.38,  2.35,  2.32 au
Average spatial batch extension              ...   0.16,  0.15,  0.16 au

Time for grid setup =    0.172 sec

--------------
SCF ITERATIONS
--------------
ITER       Energy         Delta-E        Max-DP      RMS-DP      [F,P]     Damp
               ***  Starting incremental Fock matrix formation  ***
                      *** Initiating the SOSCF procedure ***
                      *** Re-Reading the Fockian *** 
                      *** Removing any level shift *** 
ITER      Energy       Delta-E        Grad      Rot      Max-DP    RMS-DP
  0   -325.95211331 -325.9521133067  0.000840  0.000840  0.003261  0.000057
               *** Restarting incremental Fock matrix formation ***
  1   -325.95222441  -0.0001111047  0.000316  0.000591  0.001531  0.000026
  2   -325.95223524  -0.0000108281  0.000166  0.000385  0.000552  0.000012
  3   -325.95223425   0.0000009938  0.000242  0.000224  0.000363  0.000008
  4   -325.95223616  -0.0000019140  0.000016  0.000038  0.000036  0.000001
  5   -325.95223615   0.0000000054  0.000023  0.000022  0.000021  0.000000
                  ***Gradient check signals convergence***
              ***Rediagonalizing the Fockian in SOSCF/NRSCF***

               *****************************************************
               *                     SUCCESS                       *
               *           SCF CONVERGED AFTER   6 CYCLES          *
               *****************************************************

Setting up the final grid:

General Integration Accuracy     IntAcc      ...  5.010
Radial Grid Type                 RadialGrid  ... Gauss-Chebyshev
Angular Grid (max. acc.)         AngularGrid ... Lebedev-434
Angular grid pruning method      GridPruning ... 3 (G Style)
Weight generation scheme         WeightScheme... Becke
Basis function cutoff            BFCut       ...    1.0000e-11
Integration weight cutoff        WCut        ...    1.0000e-14
Grids for H and He will be reduced by one unit

# of grid points (after initial pruning)     ... 141842 (   0.0 sec)
# of grid points (after weights+screening)   ... 128082 (   0.1 sec)
nearest neighbour list constructed           ...    0.0 sec
Grid point re-assignment to atoms done       ...    0.0 sec
Grid point division into batches done        ...    0.8 sec
Reduced shell lists constructed in    1.0 sec

Total number of grid points                  ...   128082
Total number of batches                      ...     2009
Average number of points per batch           ...       63
Average number of grid points per atom       ...     7534
Average number of shells per batch           ...    95.85 (81.92%)
Average number of basis functions per batch  ...   236.29 (85.30%)
Average number of large shells per batch     ...    79.06 (82.49%)
Average number of large basis fcns per batch ...   193.91 (82.06%)
Maximum spatial batch extension              ...   3.28,  1.84,  2.66 au
Average spatial batch extension              ...   0.11,  0.10,  0.11 au

Final grid set up in    1.2 sec
Final integration                            ... done (   0.7 sec)
Change in XC energy                          ...     0.000496932
Integrated number of electrons               ...    53.999918435
Previous integrated no of electrons          ...    54.000630141
Total Energy       :         -325.95173923 Eh           -8869.59775 eV
  Last Energy change         ...   -1.2047e-08  Tolerance :   1.0000e-08
  Last MAX-Density change    ...    2.2105e-06  Tolerance :   1.0000e-07
             **** THE GBW FILE WAS UPDATED (4689_+.gbw) ****
             **** DENSITY FILE WAS UPDATED (4689_+.scfp.tmp) ****
             **** ENERGY FILE WAS UPDATED (4689_+.en.tmp) ****
Total SCF time: 0 days 0 hours 0 min 33 sec 
           ************************************************************
           *              Shut down parallel processing               *
           ************************************************************

-------------------------   --------------------
FINAL SINGLE POINT ENERGY      -325.951739234240
-------------------------   --------------------



           ************************************************************
           *        Program running with 8 parallel MPI-processes     *
           *              working on a common directory               *
           ************************************************************
------------------------------------------------------------------------------
                         ORCA SCF GRADIENT CALCULATION
------------------------------------------------------------------------------

Gradient of the Kohn-Sham DFT energy:
Kohn-Sham wavefunction type      ... RKS
Hartree-Fock exchange scaling    ...    0.250
Number of operators              ...    1
Number of atoms                  ...   17
Basis set dimensions             ...  277
Integral neglect threshold       ... 2.5e-11
Integral primitive cutoff        ... 2.5e-12

Nuclear repulsion gradient       ... done
One Electron Gradient            ... done
Pre-screening matrix             ... done
Starting the two electron gradient:
Two electron gradient done
Exchange-correlation gradient    ... done

------------------
CARTESIAN GRADIENT
------------------

   1   C   :    0.000221757    0.000043327    0.000075432
   2   C   :    0.000321470    0.000404937    0.000365159
   3   C   :   -0.000125576   -0.000194728    0.000243425
   4   N   :   -0.000262935    0.000101936   -0.000385187
   5   C   :   -0.000235697   -0.000070514   -0.000209801
   6   C   :    0.000221313    0.000146232    0.000383273
   7   O   :   -0.000163314   -0.000019649   -0.000194441
   8   H   :   -0.000028694    0.000009819    0.000002739
   9   H   :   -0.000021467    0.000003105   -0.000002480
  10   H   :   -0.000015549   -0.000028073    0.000035688
  11   H   :    0.000004677   -0.000034700   -0.000102092
  12   H   :   -0.000032530    0.000000729    0.000006403
  13   H   :    0.000226108   -0.000104539    0.000110497
  14   H   :   -0.000035576   -0.000012388   -0.000102725
  15   H   :   -0.000080198   -0.000286911   -0.000143921
  16   H   :   -0.000016149    0.000007497   -0.000098612
  17   H   :    0.000022357    0.000033919    0.000016645

Norm of the cartesian gradient     ...    0.001187026
RMS gradient                       ...    0.000166217
MAX gradient                       ...    0.000404937

-------
TIMINGS
-------

Total SCF gradient time            ...       28.221 sec

One electron gradient       ....       0.088 sec  (  0.3%)
Prescreening matrices       ....       0.223 sec  (  0.8%)
Two electron gradient       ....      23.857 sec  ( 84.5%)
XC gradient                 ....       2.813 sec  ( 10.0%)
           ************************************************************
           *              Shut down parallel processing               *
           ************************************************************
------------------------------------------------------------------------------
                         ORCA GEOMETRY RELAXATION STEP
------------------------------------------------------------------------------

Reading the OPT-File                    .... done
Getting information on internals        .... done
Copying old internal coords+grads       .... done
Making the new internal coordinates     .... (new redundants).... done
Validating the new internal coordinates .... (new redundants).... done
Calculating the B-matrix                .... done
Calculating the G,G- and P matrices     .... done
Transforming gradient to internals      .... done
Projecting the internal gradient        .... done
Number of atoms                         ....  17
Number of internal coordinates          .... 109
Current Energy                          ....  -325.951739234 Eh
Current gradient norm                   ....     0.001187026 Eh/bohr
Maximum allowed component of the step   ....  0.300
Current trust radius                    ....  0.300
Updating the Hessian (BFGS)             .... done
Forming the augmented Hessian           .... done
Diagonalizing the augmented Hessian     .... done
Last element of RFO vector              ....  0.966949877
Lowest eigenvalues of augmented Hessian:
 -0.000143625  0.002045440  0.013834826  0.030851007  0.037410709
Length of the computed step             ....  0.263681236
The final length of the internal step   ....  0.263681236
Converting the step to cartesian space:
 Initial RMS(Int)=    0.0252560819
Transforming coordinates:
 Iter   0:  RMS(Cart)=    0.0569721878 RMS(Int)=    0.5934414854
 Iter   1:  RMS(Cart)=    0.0019728786 RMS(Int)=    0.0011781415
 Iter   2:  RMS(Cart)=    0.0001232576 RMS(Int)=    0.0000553676
 Iter   3:  RMS(Cart)=    0.0000083699 RMS(Int)=    0.0000048928
 Iter   4:  RMS(Cart)=    0.0000005264 RMS(Int)=    0.0000002474
 Iter   5:  RMS(Cart)=    0.0000000360 RMS(Int)=    0.0000000204
done
Storing new coordinates                 .... done

                                .--------------------.
          ----------------------|Geometry convergence|---------------------
          Item                value                 Tolerance   Converged
          -----------------------------------------------------------------
          Energy change      -0.00002576            0.00000100      NO
          RMS gradient        0.00006770            0.00003000      NO
          MAX gradient        0.00023118            0.00010000      NO
          RMS step            0.02525608            0.00060000      NO
          MAX step            0.09259837            0.00100000      NO
          ....................................................
          Max(Bonds)      0.0012      Max(Angles)    0.35
          Max(Dihed)        5.31      Max(Improp)    0.00
          -----------------------------------------------------------------

The optimization has not yet converged - more geometry cycles are needed


    ---------------------------------------------------------------------------
                         Redundant Internal Coordinates
                            (Angstroem and degrees)

        Definition                    Value    dE/dq     Step     New-Value
    ----------------------------------------------------------------------------
     1. B(C   1,C   0)                1.4993 -0.000038  0.0001    1.4994   
     2. B(C   2,C   1)                1.4770  0.000002 -0.0004    1.4765   
     3. B(N   3,C   1)                1.4926  0.000031 -0.0001    1.4925   
     4. B(N   3,C   2)                1.4815 -0.000061  0.0011    1.4826   
     5. B(C   4,C   1)                1.5030 -0.000040  0.0004    1.5034   
     6. B(C   5,C   4)                1.4585  0.000084 -0.0008    1.4577   
     7. B(O   6,C   4)                1.4096 -0.000139  0.0008    1.4104   
     8. B(O   6,C   5)                1.4205 -0.000109  0.0012    1.4217   
     9. B(H   7,C   0)                1.0921 -0.000012  0.0004    1.0925   
    10. B(H   8,C   0)                1.0914 -0.000006 -0.0001    1.0914   
    11. B(H   9,C   0)                1.0917  0.000009 -0.0003    1.0914   
    12. B(H  10,C   2)                1.0824  0.000021 -0.0004    1.0821   
    13. B(H  11,C   2)                1.0832 -0.000008  0.0003    1.0834   
    14. B(H  12,N   3)                1.0144  0.000020 -0.0002    1.0142   
    15. B(H  13,N   3)                1.0154 -0.000080  0.0005    1.0159   
    16. B(H  14,C   4)                1.0886  0.000005 -0.0001    1.0884   
    17. B(H  15,C   5)                1.0903  0.000013 -0.0000    1.0902   
    18. B(H  16,C   5)                1.0857 -0.000022  0.0007    1.0864   
    19. A(H   7,C   0,H   9)          107.62  0.000013   -0.00    107.62   
    20. A(C   1,C   0,H   9)          108.82 -0.000069    0.10    108.92   
    21. A(C   1,C   0,H   7)          112.16  0.000045   -0.09    112.07   
    22. A(H   7,C   0,H   8)          109.39 -0.000010   -0.03    109.36   
    23. A(H   8,C   0,H   9)          108.16 -0.000000    0.06    108.22   
    24. A(C   1,C   0,H   8)          110.56  0.000020   -0.03    110.53   
    25. A(C   2,C   1,N   3)           59.85 -0.000032    0.06     59.91   
    26. A(C   0,C   1,C   4)          115.52 -0.000019   -0.06    115.45   
    27. A(C   2,C   1,C   4)          119.66 -0.000064    0.22    119.88   
    28. A(C   0,C   1,N   3)          115.03  0.000024   -0.24    114.80   
    29. A(N   3,C   1,C   4)          113.42  0.000032   -0.03    113.38   
    30. A(C   0,C   1,C   2)          120.46  0.000070   -0.01    120.45   
    31. A(H  10,C   2,H  11)          116.24 -0.000032    0.09    116.33   
    32. A(N   3,C   2,H  11)          113.96 -0.000020   -0.03    113.93   
    33. A(C   1,C   2,H  11)          119.59 -0.000005    0.06    119.66   
    34. A(N   3,C   2,H  10)          113.82  0.000037   -0.05    113.77   
    35. A(C   1,C   2,H  10)          119.63  0.000027   -0.13    119.50   
    36. A(C   1,C   2,N   3)           60.60  0.000025   -0.02     60.58   
    37. A(C   2,N   3,H  13)          119.38 -0.000078    0.20    119.59   
    38. A(C   1,N   3,H  13)          117.49 -0.000021    0.07    117.55   
    39. A(C   2,N   3,H  12)          118.59  0.000121   -0.22    118.38   
    40. A(C   1,N   3,H  12)          117.59  0.000106   -0.35    117.24   
    41. A(C   1,N   3,C   2)           59.55  0.000007   -0.04     59.51   
    42. A(H  12,N   3,H  13)          113.82 -0.000078    0.18    114.00   
    43. A(C   5,C   4,H  14)          118.26 -0.000001   -0.02    118.24   
    44. A(C   1,C   4,H  14)          112.26  0.000049   -0.19    112.07   
    45. A(C   5,C   4,O   6)           59.35 -0.000037    0.06     59.40   
    46. A(C   1,C   4,O   6)          115.29 -0.000035    0.13    115.42   
    47. A(O   6,C   4,H  14)          115.64  0.000027   -0.14    115.50   
    48. A(C   1,C   4,C   5)          125.00 -0.000042    0.24    125.24   
    49. A(C   4,C   5,O   6)           58.61 -0.000055    0.03     58.64   
    50. A(H  15,C   5,H  16)          114.06  0.000031   -0.13    113.93   
    51. A(O   6,C   5,H  16)          115.70  0.000024    0.05    115.75   
    52. A(C   4,C   5,H  16)          118.70  0.000021   -0.07    118.63   
    53. A(O   6,C   5,H  15)          115.95  0.000002   -0.14    115.81   
    54. A(C   4,C   5,H  15)          122.01 -0.000056    0.29    122.31   
    55. A(C   4,O   6,C   5)           62.04  0.000092   -0.09     61.95   
    56. D(C   2,C   1,C   0,H   8)   -149.94 -0.000029    0.06   -149.88   
    57. D(N   3,C   1,C   0,H   8)    -81.55 -0.000038    0.02    -81.53   
    58. D(N   3,C   1,C   0,H   9)    159.80 -0.000007   -0.10    159.70   
    59. D(C   4,C   1,C   0,H   9)    -65.05  0.000051   -0.49    -65.55   
    60. D(C   2,C   1,C   0,H   9)     91.41  0.000002   -0.06     91.35   
    61. D(C   4,C   1,C   0,H   7)    175.99  0.000053   -0.50    175.48   
    62. D(N   3,C   1,C   0,H   7)     40.84 -0.000005   -0.11     40.73   
    63. D(C   4,C   1,C   0,H   8)     53.60  0.000020   -0.38     53.22   
    64. D(C   2,C   1,C   0,H   7)    -27.55  0.000004   -0.07    -27.62   
    65. D(N   3,C   2,C   1,C   4)   -101.43 -0.000056    0.12   -101.31   
    66. D(H  10,C   2,C   1,C   0)   -154.64  0.000028   -0.28   -154.92   
    67. D(H  10,C   2,C   1,C   4)      0.86 -0.000011    0.10      0.96   
    68. D(H  10,C   2,C   1,N   3)    102.29  0.000045   -0.02    102.27   
    69. D(H  11,C   2,C   1,C   4)    156.09 -0.000045    0.20    156.29   
    70. D(H  11,C   2,C   1,N   3)   -102.48  0.000011    0.08   -102.40   
    71. D(N   3,C   2,C   1,C   0)    103.07 -0.000017   -0.26    102.81   
    72. D(H  11,C   2,C   1,C   0)      0.59 -0.000006   -0.18      0.41   
    73. D(H  12,N   3,C   2,H  11)      4.77 -0.000069    0.43      5.20   
    74. D(H  12,N   3,C   2,H  10)    141.25 -0.000100    0.48    141.73   
    75. D(H  12,N   3,C   2,C   1)   -106.94 -0.000079    0.35   -106.59   
    76. D(C   1,N   3,C   2,H  10)   -111.81 -0.000022    0.13   -111.68   
    77. D(H  13,N   3,C   1,C   4)      2.23 -0.000015    0.09      2.32   
    78. D(H  13,N   3,C   1,C   2)   -109.62  0.000083   -0.20   -109.82   
    79. D(H  13,N   3,C   1,C   0)    138.31  0.000018   -0.31    138.00   
    80. D(H  12,N   3,C   1,C   4)   -139.54  0.000003    0.17   -139.37   
    81. D(C   1,N   3,C   2,H  11)    111.71  0.000010    0.08    111.79   
    82. D(H  12,N   3,C   1,C   0)     -3.46  0.000037   -0.23     -3.69   
    83. D(C   2,N   3,C   1,C   4)    111.84 -0.000098    0.29    112.14   
    84. D(C   2,N   3,C   1,C   0)   -112.07 -0.000064   -0.11   -112.18   
    85. D(H  13,N   3,C   2,C   1)    106.47  0.000011   -0.03    106.44   
    86. D(H  12,N   3,C   1,C   2)    108.62  0.000102   -0.12    108.49   
    87. D(H  13,N   3,C   2,H  11)   -141.83  0.000021    0.06   -141.77   
    88. D(H  13,N   3,C   2,H  10)     -5.35 -0.000011    0.11     -5.24   
    89. D(H  14,C   4,C   1,N   3)   -178.80  0.000211   -5.31   -184.11   
    90. D(H  14,C   4,C   1,C   2)   -111.34  0.000173   -5.20   -116.53   
    91. D(H  14,C   4,C   1,C   0)     45.33  0.000157   -4.83     40.51   
    92. D(O   6,C   4,C   1,N   3)     45.92  0.000155   -5.03     40.89   
    93. D(O   6,C   4,C   1,C   2)    113.39  0.000116   -4.92    108.47   
    94. D(O   6,C   4,C   1,C   0)    -89.94  0.000101   -4.55    -94.49   
    95. D(C   5,C   4,C   1,N   3)    -23.13  0.000231   -5.23    -28.36   
    96. D(C   5,C   4,C   1,C   2)     44.34  0.000193   -5.12     39.21   
    97. D(C   5,C   4,C   1,C   0)   -158.99  0.000177   -4.75   -163.74   
    98. D(H  16,C   5,C   4,H  14)     -0.44 -0.000021    0.26     -0.18   
    99. D(H  16,C   5,C   4,O   6)    104.18 -0.000003    0.12    104.30   
   100. D(H  16,C   5,C   4,C   1)   -154.79 -0.000052    0.21   -154.58   
   101. D(H  15,C   5,C   4,H  14)    152.49 -0.000020    0.44    152.93   
   102. D(H  15,C   5,C   4,O   6)   -102.89 -0.000002    0.30   -102.59   
   103. D(H  15,C   5,C   4,C   1)     -1.86 -0.000051    0.39     -1.47   
   104. D(O   6,C   5,C   4,H  14)   -104.62 -0.000018    0.14   -104.48   
   105. D(O   6,C   5,C   4,C   1)    101.02 -0.000049    0.10    101.12   
   106. D(C   4,O   6,C   5,H  16)   -109.32  0.000002    0.10   -109.21   
   107. D(C   4,O   6,C   5,H  15)    113.18 -0.000083    0.42    113.61   
   108. D(C   5,O   6,C   4,H  14)    109.03 -0.000024    0.06    109.09   
   109. D(C   5,O   6,C   4,C   1)   -117.22  0.000043   -0.24   -117.46   
    ----------------------------------------------------------------------------

         *************************************************************
         *                GEOMETRY OPTIMIZATION CYCLE   3            *
         *************************************************************
---------------------------------
CARTESIAN COORDINATES (ANGSTROEM)
---------------------------------
  C     -0.562832    1.741896   -0.949943
  C     -0.171285    0.336998   -0.601910
  C      0.269081   -0.599744   -1.654843
  N      1.279540    0.031089   -0.772190
  C     -0.746690   -0.195006    0.681081
  C     -0.265077   -1.371143    1.394938
  O      0.077659   -0.057630    1.817217
  H     -0.053475    2.099535   -1.847794
  H     -0.347759    2.416060   -0.119091
  H     -1.636253    1.772221   -1.144829
  H      0.159240   -1.665079   -1.500279
  H      0.315163   -0.265738   -2.684470
  H      1.866166    0.763213   -1.157406
  H      1.730866   -0.523148   -0.050223
  H     -1.785302    0.100721    0.817212
  H      0.559206   -1.980805    1.024138
  H     -0.955916   -1.908614    2.038441

----------------------------
CARTESIAN COORDINATES (A.U.)
----------------------------
  NO LB      ZA    FRAG    MASS        X           Y           Z
   0 C     6.0000    0    12.011         -1.063598393568594          3.291707274772398         -1.795132412925740
   1 C     6.0000    0    12.011         -0.323682356426004          0.636833470792667         -1.137444178327816
   2 C     6.0000    0    12.011          0.508488968309282         -1.133351860499186         -3.127199866327242
   3 N     7.0000    0    14.007          2.417979628622649          0.058749568936239         -1.459227817508201
   4 C     6.0000    0    12.011         -1.411040443728331         -0.368507824681164          1.287056409873123
   5 C     6.0000    0    12.011         -0.500922542978588         -2.591084706020377          2.636051474905648
   6 O     8.0000    0    15.999          0.146754531281578         -0.108905468833712          3.434042337073435
   7 H     1.0000    0     1.008         -0.101053395650819          3.967546373531090         -3.491824110942944
   8 H     1.0000    0     1.008         -0.657169185380503          4.565691466480872         -0.225050087088985
   9 H     1.0000    0     1.008         -3.092070217214542          3.349012478393746         -2.163413145723252
  10 H     1.0000    0     1.008          0.300920816109362         -3.146544028357662         -2.835115844017391
  11 H     1.0000    0     1.008          0.595572246213581         -0.502171395522277         -5.072912193290824
  12 H     1.0000    0     1.008          3.526542864841877          1.442263336374758         -2.187180011114922
  13 H     1.0000    0     1.008          3.270863024156731         -0.988607002011073         -0.094908147782640
  14 H     1.0000    0     1.008         -3.373732790844879          0.190335403338695          1.544307104570528
  15 H     1.0000    0     1.008          1.056747052584624         -3.743178755317196          1.935340688707527
  16 H     1.0000    0     1.008         -1.806418736511425         -3.606757984295124          3.852094588547227

--------------------------------
INTERNAL COORDINATES (ANGSTROEM)
--------------------------------
 C      0   0   0   0.000000     0.000     0.000
 C      1   0   0   1.499392     0.000     0.000
 C      2   1   0   1.476508   120.451     0.000
 N      3   2   1   1.482583    60.578   102.807
 C      2   1   3   1.503391   115.449   203.100
 C      5   2   1   1.457684   125.239   196.255
 O      5   2   1   1.410400   115.422   265.507
 H      1   2   3   1.092468   112.071   332.385
 H      1   2   3   1.091360   110.526   210.119
 H      1   2   3   1.091390   108.924    91.353
 H      3   2   1   1.082079   119.503   205.079
 H      3   2   1   1.083427   119.657     0.406
 H      4   3   2   1.014163   118.377   253.407
 H      4   3   2   1.015928   119.586   106.440
 H      5   2   1   1.088440   112.074    40.508
 H      6   5   2   1.090240   122.305   358.530
 H      6   5   2   1.086383   118.630   205.419

---------------------------
INTERNAL COORDINATES (A.U.)
---------------------------
 C      0   0   0   0.000000     0.000     0.000
 C      1   0   0   2.833440     0.000     0.000
 C      2   1   0   2.790196   120.451     0.000
 N      3   2   1   2.801676    60.578   102.807
 C      2   1   3   2.840997   115.449   203.100
 C      5   2   1   2.754623   125.239   196.255
 O      5   2   1   2.665271   115.422   265.507
 H      1   2   3   2.064465   112.071   332.385
 H      1   2   3   2.062372   110.526   210.119
 H      1   2   3   2.062429   108.924    91.353
 H      3   2   1   2.044833   119.503   205.079
 H      3   2   1   2.047381   119.657     0.406
 H      4   3   2   1.916491   118.377   253.407
 H      4   3   2   1.919827   119.586   106.440
 H      5   2   1   2.056853   112.074    40.508
 H      6   5   2   2.060255   122.305   358.530
 H      6   5   2   2.052967   118.630   205.419



           ************************************************************
           *        Program running with 8 parallel MPI-processes     *
           *              working on a common directory               *
           ************************************************************
           ************************************************************
           *              Shut down parallel processing               *
           ************************************************************


           ************************************************************
           *        Program running with 8 parallel MPI-processes     *
           *              working on a common directory               *
           ************************************************************

Diagonalization of the overlap matrix:
Smallest eigenvalue                        ... 6.497e-05
Time for diagonalization                   ...    0.018 sec
Threshold for overlap eigenvalues          ... 1.000e-08
Number of eigenvalues below threshold      ... 0
Time for construction of square roots      ...    0.008 sec
Total time needed                          ...    0.026 sec

-------------------
DFT GRID GENERATION
-------------------

General Integration Accuracy     IntAcc      ...  4.340
Radial Grid Type                 RadialGrid  ... Gauss-Chebyshev
Angular Grid (max. acc.)         AngularGrid ... Lebedev-194
Angular grid pruning method      GridPruning ... 3 (G Style)
Weight generation scheme         WeightScheme... Becke
Basis function cutoff            BFCut       ...    1.0000e-11
Integration weight cutoff        WCut        ...    1.0000e-14
Grids for H and He will be reduced by one unit

# of grid points (after initial pruning)     ...  38362 (   0.0 sec)
# of grid points (after weights+screening)   ...  35036 (   0.0 sec)
nearest neighbour list constructed           ...    0.0 sec
Grid point re-assignment to atoms done       ...    0.0 sec
Grid point division into batches done        ...    0.1 sec
Reduced shell lists constructed in    0.1 sec

Total number of grid points                  ...    35036
Total number of batches                      ...      555
Average number of points per batch           ...       63
Average number of grid points per atom       ...     2061
Average number of shells per batch           ...    97.15 (83.04%)
Average number of basis functions per batch  ...   239.32 (86.40%)
Average number of large shells per batch     ...    81.42 (83.81%)
Average number of large basis fcns per batch ...   200.55 (83.80%)
Maximum spatial batch extension              ...   3.17,  2.47,  2.24 au
Average spatial batch extension              ...   0.16,  0.16,  0.16 au

Time for grid setup =    0.173 sec

--------------
SCF ITERATIONS
--------------
ITER       Energy         Delta-E        Max-DP      RMS-DP      [F,P]     Damp
               ***  Starting incremental Fock matrix formation  ***
  0   -325.9477739155   0.000000000000 0.00666905  0.00010678  0.0294058 0.7000
                      *** Initiating the SOSCF procedure ***
                      *** Re-Reading the Fockian *** 
                      *** Removing any level shift *** 
ITER      Energy       Delta-E        Grad      Rot      Max-DP    RMS-DP
  1   -325.94897985  -0.0012059348  0.001499  0.001499  0.021453  0.000336
               *** Restarting incremental Fock matrix formation ***
  2   -325.95230072  -0.0033208681  0.000970  0.001881  0.004711  0.000083
  3   -325.95239737  -0.0000966477  0.000492  0.001162  0.001590  0.000037
  4   -325.95239052   0.0000068433  0.000667  0.000651  0.000970  0.000021
  5   -325.95240593  -0.0000154119  0.000064  0.000160  0.000199  0.000004
  6   -325.95240581   0.0000001294  0.000095  0.000094  0.000119  0.000002
  7   -325.95240610  -0.0000002914  0.000009  0.000014  0.000026  0.000001
  8   -325.95240610   0.0000000001  0.000009  0.000008  0.000009  0.000000
                 **** Energy Check signals convergence ****
              ***Rediagonalizing the Fockian in SOSCF/NRSCF***

               *****************************************************
               *                     SUCCESS                       *
               *           SCF CONVERGED AFTER   9 CYCLES          *
               *****************************************************

Setting up the final grid:

General Integration Accuracy     IntAcc      ...  5.010
Radial Grid Type                 RadialGrid  ... Gauss-Chebyshev
Angular Grid (max. acc.)         AngularGrid ... Lebedev-434
Angular grid pruning method      GridPruning ... 3 (G Style)
Weight generation scheme         WeightScheme... Becke
Basis function cutoff            BFCut       ...    1.0000e-11
Integration weight cutoff        WCut        ...    1.0000e-14
Grids for H and He will be reduced by one unit

# of grid points (after initial pruning)     ... 141842 (   0.0 sec)
# of grid points (after weights+screening)   ... 128068 (   0.1 sec)
nearest neighbour list constructed           ...    0.0 sec
Grid point re-assignment to atoms done       ...    0.0 sec
Grid point division into batches done        ...    0.8 sec
Reduced shell lists constructed in    1.0 sec

Total number of grid points                  ...   128068
Total number of batches                      ...     2009
Average number of points per batch           ...       63
Average number of grid points per atom       ...     7533
Average number of shells per batch           ...    95.83 (81.91%)
Average number of basis functions per batch  ...   236.27 (85.30%)
Average number of large shells per batch     ...    79.03 (82.47%)
Average number of large basis fcns per batch ...   193.71 (81.99%)
Maximum spatial batch extension              ...   3.08,  2.04,  2.35 au
Average spatial batch extension              ...   0.11,  0.10,  0.11 au

Final grid set up in    1.2 sec
Final integration                            ... done (   0.7 sec)
Change in XC energy                          ...     0.000556289
Integrated number of electrons               ...    53.999903911
Previous integrated no of electrons          ...    54.001192115
Total Energy       :         -325.95184981 Eh           -8869.60076 eV
  Last Energy change         ...   -2.3785e-09  Tolerance :   1.0000e-08
  Last MAX-Density change    ...    4.6800e-06  Tolerance :   1.0000e-07
             **** THE GBW FILE WAS UPDATED (4689_+.gbw) ****
             **** DENSITY FILE WAS UPDATED (4689_+.scfp.tmp) ****
             **** ENERGY FILE WAS UPDATED (4689_+.en.tmp) ****
Total SCF time: 0 days 0 hours 0 min 48 sec 
           ************************************************************
           *              Shut down parallel processing               *
           ************************************************************

-------------------------   --------------------
FINAL SINGLE POINT ENERGY      -325.951849809748
-------------------------   --------------------



           ************************************************************
           *        Program running with 8 parallel MPI-processes     *
           *              working on a common directory               *
           ************************************************************
------------------------------------------------------------------------------
[...]
     36      -0.011130  -0.106951   0.037209  -0.173370  -0.200365   0.119196
     37      -0.056598  -0.082608   0.003096  -0.084392  -0.062981   0.034258
     38      -0.035650  -0.155319   0.020024  -0.194557  -0.172693   0.119281
     39      -0.121204   0.045737  -0.025303   0.086936   0.121652  -0.119572
     40      -0.013756   0.106351  -0.007391   0.072605   0.107326  -0.098434
     41       0.005390   0.047623  -0.002464   0.046649   0.052866  -0.066993
     42       0.003672   0.031838   0.001054  -0.032756   0.022973  -0.001082
     43      -0.003476  -0.079544  -0.056632   0.265240  -0.224618  -0.028948
     44      -0.016926   0.135612   0.082912  -0.431146   0.353889   0.034002
     45       0.025527   0.019116   0.000824  -0.015926  -0.002984   0.001483
     46      -0.135694   0.089721   0.032652  -0.198922   0.116728   0.019450
     47       0.132979  -0.077563  -0.033582   0.183677  -0.115234  -0.023459
     48      -0.217117  -0.070148  -0.052333   0.215524  -0.108532  -0.006305
     49       0.156902   0.080488   0.035451  -0.150176   0.071840   0.011866
     50      -0.226098  -0.083523  -0.048291   0.193662  -0.094964  -0.009462
                 36         37         38         39         40         41    
      0       0.030800  -0.017627   0.001627  -0.013041  -0.001113   0.005962
      1      -0.093921   0.059805  -0.036406  -0.071388   0.003679   0.003657
      2       0.012166  -0.006003   0.015225   0.031185  -0.002194   0.003762
      3       0.014060   0.003164  -0.003409  -0.003973   0.008054   0.005839
      4       0.040844  -0.038358   0.033363  -0.013578   0.003139  -0.006527
      5      -0.035446   0.035077  -0.029993   0.010755   0.004309  -0.005486
      6      -0.003681   0.010474  -0.011974  -0.002237   0.007545  -0.006628
      7      -0.001350  -0.006758  -0.014279  -0.006108  -0.008177  -0.001007
      8       0.001239   0.007687   0.003843   0.011092  -0.008340  -0.000756
      9       0.008336   0.004144   0.006378   0.009600   0.066591  -0.002633
     10      -0.007440   0.009682  -0.006724   0.002016   0.027536  -0.003799
     11       0.006763  -0.011031  -0.001929  -0.001682   0.022511  -0.004350
     12       0.005181   0.015391   0.011935  -0.005957   0.000084   0.002555
     13       0.010398   0.019220  -0.133871   0.034469  -0.005736   0.002062
     14      -0.007402  -0.014696   0.170383  -0.047237   0.009960   0.014237
     15      -0.019782  -0.033562   0.006751  -0.006078   0.001752  -0.080059
     16       0.033414   0.074945   0.097420  -0.027145   0.001291   0.045057
     17      -0.033547  -0.073471  -0.091367   0.021078   0.000041   0.013793
     18      -0.014225  -0.014127  -0.024467   0.009819  -0.003496   0.011149
     19      -0.000159  -0.007615  -0.000702   0.000427   0.001579  -0.003618
     20      -0.002049   0.000266  -0.020994   0.000948   0.001141  -0.004606
     21      -0.077995   0.051682  -0.068087  -0.137797   0.009764   0.006247
     22      -0.069977   0.044391   0.233056   0.663766  -0.022171   0.004233
     23      -0.035359   0.025006   0.073462   0.225203  -0.011380   0.006196
     24      -0.368229   0.215064   0.036291   0.242071   0.002655   0.010319
     25       0.110178  -0.063705   0.181248   0.412896  -0.026504   0.005121
     26      -0.093849   0.061235  -0.168394  -0.420586   0.022908   0.004648
     27       0.009367   0.000256   0.019751   0.053964  -0.008460  -0.010305
     28       0.677620  -0.387088   0.024812   0.002398  -0.007471   0.009442
     29       0.224259  -0.142587  -0.044164  -0.179830   0.009033   0.002725
     30       0.114732  -0.100184   0.053994  -0.004116  -0.026118  -0.007251
     31      -0.010339  -0.002857  -0.020214  -0.007832  -0.004760   0.015604
     32       0.008009  -0.047002   0.010382  -0.012375   0.002078  -0.015185
     33      -0.009335   0.012001   0.001288   0.021257  -0.001203  -0.002192
     34       0.022610  -0.029342   0.056326  -0.023522   0.012663  -0.006554
     35       0.007839   0.006447   0.022474   0.014852  -0.003644  -0.011581
     36      -0.051559   0.017499  -0.018547  -0.006681  -0.489903   0.003945
     37       0.011972   0.003834   0.020273   0.003707   0.145720  -0.007813
     38      -0.032622  -0.007130   0.019107  -0.015550  -0.421496  -0.004467
     39       0.018093  -0.036588   0.017217  -0.034159  -0.555450   0.005098
     40       0.004682  -0.011723   0.028700  -0.034973  -0.487486  -0.003627
     41       0.011490   0.000603   0.014061   0.000441   0.062760  -0.002898
     42      -0.015199  -0.026691   0.110158  -0.027406   0.001384  -0.130261
     43      -0.212819  -0.253061   0.515130  -0.106875   0.015111  -0.003822
     44       0.295961   0.308455  -0.590368   0.114856  -0.014357  -0.009152
     45      -0.059011  -0.131132  -0.081747   0.012029   0.015194   0.921522
     46      -0.192853  -0.408440  -0.263090   0.053646   0.023710  -0.283926
     47       0.178739   0.353422   0.240345  -0.053585  -0.013794  -0.137653
     48       0.232378   0.428781   0.170657  -0.035606  -0.012204  -0.075624
     49      -0.108685  -0.202749  -0.030916  -0.000084   0.012655  -0.133698
     50       0.124633   0.203148  -0.028237   0.014677  -0.008022  -0.003525
                 42         43         44         45         46         47    
      0       0.010946  -0.086125  -0.004686   0.051247   0.030776   0.004483
      1      -0.004822   0.024710   0.001260   0.050667  -0.005924   0.003065
      2       0.000143  -0.026634   0.003155   0.018497  -0.088972   0.005595
      3      -0.009726   0.002441  -0.000665  -0.003095   0.001280   0.001951
      4      -0.002209   0.004245  -0.002198  -0.004452   0.001692   0.003632
      5       0.001595  -0.006190  -0.004129  -0.001647   0.000701   0.004927
      6       0.007282   0.005391  -0.003016  -0.000120  -0.000430   0.000952
      7      -0.003988  -0.003593  -0.065311  -0.007465   0.002216   0.040067
      8      -0.001032   0.005223  -0.035996  -0.002402  -0.006187  -0.035871
      9       0.002839   0.006747   0.002305  -0.004783   0.001216   0.004305
     10       0.006452  -0.003793  -0.000803   0.003737  -0.000901  -0.002468
     11       0.004051  -0.002161   0.000153   0.002163  -0.000607  -0.000893
     12      -0.086317  -0.016059  -0.000290   0.005581   0.000798   0.000565
     13       0.020992   0.006051   0.002373  -0.001703   0.000836  -0.004989
     14       0.003750   0.004192  -0.001290   0.001261  -0.000082  -0.002092
     15      -0.004408  -0.002491  -0.000210   0.000883   0.000049   0.043803
     16       0.003008  -0.000544  -0.001668   0.000924  -0.001634   0.029456
     17       0.002261  -0.000789  -0.000274   0.001625  -0.000789  -0.042359
     18       0.000165   0.001264  -0.000275  -0.002708   0.001808   0.000032
     19      -0.004548  -0.001563   0.000464   0.001692  -0.000632  -0.001481
     20      -0.006179  -0.006647  -0.000135   0.006271  -0.002193  -0.005645
     21       0.007461  -0.026345   0.004204  -0.221038  -0.337490   0.005066
     22       0.001629  -0.077405   0.009691  -0.143420  -0.264702  -0.000028
     23      -0.007327   0.242410  -0.052431   0.428862   0.712990  -0.016412
     24      -0.010383   0.021319   0.010576  -0.083334   0.048749  -0.023579
     25       0.010110  -0.130046   0.012159  -0.529397   0.357356  -0.067071
     26       0.010880  -0.138940   0.020084  -0.616948   0.381741  -0.080193
     27      -0.136876   0.891806   0.027777  -0.232355  -0.101663  -0.038412
     28      -0.013428  -0.002134  -0.003689   0.010138  -0.003904  -0.008157
     29      -0.045744   0.267840   0.002281  -0.044947  -0.033260  -0.016731
     30       0.010860   0.002382   0.105524   0.007891  -0.003920  -0.028701
     31       0.006166  -0.032176   0.795447   0.101479  -0.026254  -0.313785
     32      -0.000019   0.005029  -0.108302  -0.020893   0.008528   0.064209
     33       0.006094   0.006276  -0.068254   0.000617  -0.009645  -0.032676
     34       0.005011  -0.016088  -0.035832   0.024209  -0.015956  -0.101822
     35      -0.005653   0.022680   0.572699  -0.064330   0.099097   0.465674
     36       0.002667  -0.002750   0.007562  -0.005476  -0.004843   0.000236
     37       0.006702   0.002708  -0.003171  -0.005441   0.000718   0.007219
     38       0.001346   0.001030  -0.004106   0.006496  -0.002972  -0.005919
     39       0.005405   0.000826   0.002861  -0.004614   0.001229  -0.000653
     40       0.003911   0.007261  -0.002052  -0.003717  -0.000664   0.011544
     41       0.003563   0.025867   0.014402  -0.006304  -0.001848   0.000814
     42       0.969869   0.130623  -0.001137  -0.015378  -0.016554  -0.016833
     43      -0.115630  -0.024780   0.005538   0.002650   0.006246   0.005677
     44       0.012143  -0.010101   0.002310   0.004748   0.003007  -0.001491
     45       0.107962   0.027130  -0.005847  -0.004613  -0.003385  -0.034686
     46      -0.045956  -0.007133   0.005835   0.000153   0.004335   0.029751
     47      -0.015312  -0.001898   0.004978  -0.001000   0.002790   0.011965
     48      -0.025376  -0.011126  -0.005276   0.018383  -0.005019  -0.506763
     49      -0.030659  -0.010539   0.000863   0.012113  -0.001102  -0.354280
     50       0.007880   0.009943   0.007269  -0.021828   0.009090   0.511804
                  48         49         50    
      0      -0.003037   0.002275  -0.000169
      1      -0.001638   0.000570  -0.000718
      2      -0.005041   0.000181   0.000292
      3      -0.003254  -0.001955  -0.000389
      4      -0.002285  -0.000390  -0.000164
      5      -0.003821   0.000051  -0.000214
      6      -0.001346  -0.000896  -0.000661
      7      -0.054816   0.001105   0.000751
      8       0.051758   0.002612  -0.001286
      9      -0.004902  -0.045426   0.015631
     10       0.003606   0.001938   0.064989
     11       0.001043  -0.031561  -0.053105
     12       0.007144   0.000148   0.000018
     13      -0.001240  -0.000139  -0.000493
     14       0.000768  -0.000524  -0.000119
     15       0.034510   0.000272   0.000719
     16       0.024001  -0.000499  -0.000028
     17      -0.031671  -0.000200  -0.000087
     18      -0.001401   0.000261   0.000013
     19      -0.000573  -0.000773   0.000140
     20       0.004088  -0.000672   0.000364
     21      -0.013475  -0.000211   0.003641
     22      -0.003018   0.000431   0.000712
     23       0.027161   0.002327  -0.003695
     24       0.022371  -0.000144   0.002317
     25       0.062881  -0.001713   0.001631
     26       0.075982  -0.002799   0.003566
     27       0.026903  -0.010219  -0.006917
     28       0.009378  -0.001879   0.000913
     29       0.014694  -0.000491   0.000150
     30       0.040524   0.001823  -0.005626
     31       0.424387  -0.007526  -0.011258
     32      -0.083526   0.005228  -0.000645
     33       0.046827   0.005343  -0.000260
     34       0.142838   0.006920  -0.001531
     35      -0.644824  -0.003448   0.009878
     36      -0.002148   0.260498  -0.432247
     37      -0.008891   0.385021  -0.651240
     38       0.008525  -0.225709   0.359027
     39      -0.002356   0.380602   0.229343
     40      -0.012411  -0.408110  -0.236064
     41      -0.004460   0.646611   0.379697
     42      -0.009813  -0.003383  -0.000690
     43       0.007272   0.002223  -0.001169
     44       0.004367  -0.001167   0.000451
     45      -0.047037  -0.003151  -0.000908
     46       0.029492   0.003384   0.001330
     47       0.010227   0.002879   0.000555
     48      -0.376770  -0.002207  -0.000324
     49      -0.264236  -0.001109  -0.000873
     50       0.369593   0.000541   0.000019


-----------
IR SPECTRUM
-----------

 Mode    freq (cm**-1)   T**2         TX         TY         TZ
-------------------------------------------------------------------
  21:       170.14    8.994444  (  1.312181  -0.353283  -2.673540)
  22:       299.29   41.328358  (  5.609816  -1.288781  -2.863105)
  23:       476.86   24.104560  (  2.640344  -4.105195  -0.529639)
  24:       666.01   25.364485  (  2.060875  -4.555690   0.602465)
  25:       705.89   31.580707  ( -0.897068  -3.168171  -4.553973)
  26:       780.29   21.964777  ( -3.812802  -0.228990   2.715674)
  27:       866.46   17.218785  ( -3.829823   0.717308  -1.427133)
  28:       889.61    8.803608  ( -2.461050   1.266371  -1.069179)
  29:       924.88   18.109776  (  2.639165   2.909848   1.636266)
  30:       940.27    3.788285  (  1.451950  -0.115260   1.291062)
  31:      1085.57    6.497872  ( -0.430216  -0.032182   2.512320)
  32:      1132.38    6.196987  ( -1.481602  -0.055346   1.999694)
  33:      1173.39    1.092070  (  0.580520  -0.273418  -0.824808)
  34:      1187.43    4.510904  (  1.254587   1.593028  -0.631804)
  35:      1240.87    8.106606  (  0.946737   0.821041   2.556597)
  36:      1325.06    3.244950  ( -1.225285   1.254823  -0.411150)
  37:      1340.72   15.259949  (  3.398916  -1.888559   0.375052)
  38:      1407.53    6.288465  (  1.606578   1.381064   1.341653)
  39:      1444.07    6.161808  (  1.450438   1.773896  -0.954637)
  40:      1577.02   80.863704  ( -8.619222  -2.561395   0.109392)
  41:      2481.17   21.685458  ( -2.719489   2.610964   2.733625)
  42:      2749.51    0.332765  (  0.382996   0.291314   0.318143)
  43:      2788.62    4.874200  (  0.434789  -1.496387   1.563965)
  44:      2951.00    2.679077  (  0.167723   1.157140   1.145415)
  45:      3060.03    2.457973  (  0.910142   0.843278  -0.958383)
  46:      3096.80    2.053561  (  0.595169   0.304601  -1.267499)
  47:      3161.07    1.489498  (  0.057422  -0.276229   1.187391)
  48:      3168.42    2.725378  (  0.678058   1.258574  -0.825594)
  49:      3467.83   90.447866  (  8.172114  -0.003264   4.864608)
  50:      3587.61  129.906886  ( -3.191935  -8.171339   7.276514)

The first frequency considered to be a vibration is 21
The total number of vibrations considered is 30


--------------------------
THERMOCHEMISTRY AT 298.15K
--------------------------

Temperature         ... 298.15 K
Pressure            ... 1.00 atm
Total Mass          ... 100.14 AMU

Throughout the following assumptions are being made:
  (1) The electronic state is orbitally nondegenerate
  (2) There are no thermally accessible electronically excited states
  (3) Hindered rotations indicated by low frequency modes) are not
      treated as such but are treated as vibrations and this may
      case some error
  (4) All equations used are the standard statistical mechanics
      equations for an ideal gas
  (5) All vibrations are strinctly harmonic


------------
INNER ENERGY
------------

The inner energy is: U= E(el) + E(ZPE) + E(vib) + E(rot) + E(trans)
    E(el)   - is the total energy from the electronic structure calculation
              = E(kin-el) + E(nuc-el) + E(el-el) + E(nuc-nuc)
    E(ZPE)  - the the zero temperature vibrational energy from the frequency calculation
    E(vib)  - the the finite temperature correction to E(ZPE) due to population
              of excietd vibrational states
    E(rot)  - is the rotational thermal energy
    E(trans)- is the translational thermal energy

Summary of contributions to the inner energy U:
Electronic energy                ...   -325.95212665 Eh
Zero point energy                ...      0.11424050 Eh      71.69 kcal/mol
Thermal vibrational correction   ...      0.00194208 Eh       1.22 kcal/mol
Thermal rotational correction    ...      0.00141627 Eh       0.89 kcal/mol
Thermal translational correction ...      0.00141627 Eh       0.89 kcal/mol
-----------------------------------------------------------------------
Total thermal energy                   -325.83311153 Eh


Summary of corrections to the electronic energy:
(perhaps to be used in another calculation)
Total thermal correction                  0.00477462 Eh       3.00 kcal/mol
Non-thermal (ZPE) correction              0.11424050 Eh      71.69 kcal/mol
-----------------------------------------------------------------------
Total correction                          0.11901512 Eh      74.68 kcal/mol


--------
ENTHALPY
--------

The enthalpy is H = U + kB*T
                kB is Boltzmann's constant
Total free energy                 ...   -325.83311153 Eh 
Thermal Enthalpy correction       ...      0.00094421 Eh       0.59 kcal/mol
-----------------------------------------------------------------------
Total Enthalpy                    ...   -325.83216732 Eh


-------
ENTROPY
-------

The entropy contributions are T*S = T*(S(el)+S(vib)+S(rot)+S(trans)
     S(el)   - electronic entropy
     S(vib)  - vibrational entropy
     S(rot)  - rotational entropy
     S(trans)- translational entropy
The entropies will be listed as mutliplied by the temperature to get
units of energy

Electronic entropy                ...      0.00000000 Eh      0.00 kcal/mol
Vibrational entropy               ...      0.00300773 Eh      1.89 kcal/mol
Rotational entropy                ...      0.01188668 Eh      7.46 kcal/mol
Translational entropy             ...      0.01887324 Eh     11.84 kcal/mol
-----------------------------------------------------------------------
Final entropy term                ...      0.03376765 Eh     21.19 kcal/mol


CAUTION: The rotational entropy is not quite correctly treated here
         because it includes a symmetry number that is not yet correctly
         implemented in ORCA!
For a nonlinear molecule the correct rotational entropy is:
    S(rot) = R*(ln(qrot/sn)+1.5)
    R    = 8.31441 J/mol/K = 1.987191683e-3 kcal/mol/K
    qrot = 196422.0402934
    sn is the rotational symmetry number. We have assumed 3 here
       if it is different for your molecule then you should correct
       the printed rotational entropy by manually evaluating the equation
       as given above

For convenience we print out the resulting values for sn=1 - 12:
 sn= 1  qrot/sn=  196422.0403 T*S(rot)=     8.11 kcal/mol T*S(tot)=    21.84 kcal/mol
 sn= 2  qrot/sn=   98211.0201 T*S(rot)=     7.70 kcal/mol T*S(tot)=    21.43 kcal/mol
 sn= 3  qrot/sn=   65474.0134 T*S(rot)=     7.46 kcal/mol T*S(tot)=    21.19 kcal/mol
 sn= 4  qrot/sn=   49105.5101 T*S(rot)=     7.29 kcal/mol T*S(tot)=    21.02 kcal/mol
 sn= 5  qrot/sn=   39284.4081 T*S(rot)=     7.16 kcal/mol T*S(tot)=    20.89 kcal/mol
 sn= 6  qrot/sn=   32737.0067 T*S(rot)=     7.05 kcal/mol T*S(tot)=    20.78 kcal/mol
 sn= 7  qrot/sn=   28060.2915 T*S(rot)=     6.96 kcal/mol T*S(tot)=    20.69 kcal/mol
 sn= 8  qrot/sn=   24552.7550 T*S(rot)=     6.88 kcal/mol T*S(tot)=    20.61 kcal/mol
 sn= 9  qrot/sn=   21824.6711 T*S(rot)=     6.81 kcal/mol T*S(tot)=    20.54 kcal/mol
 sn=10  qrot/sn=   19642.2040 T*S(rot)=     6.75 kcal/mol T*S(tot)=    20.48 kcal/mol
 sn=11  qrot/sn=   17856.5491 T*S(rot)=     6.69 kcal/mol T*S(tot)=    20.42 kcal/mol
 sn=12  qrot/sn=   16368.5034 T*S(rot)=     6.64 kcal/mol T*S(tot)=    20.37 kcal/mol


-------------------
GIBBS FREE ENTHALPY
-------------------

The Gibbs free enthalpy is G = H - T*S

Total enthalpy                    ...   -325.83216732 Eh 
Total entropy correction          ...     -0.03376765 Eh    -21.19 kcal/mol
-----------------------------------------------------------------------
Final Gibbs free enthalpy         ...   -325.86593497 Eh

For completeness - the Gibbs free enthalpy minus the electronic energy
G-E(el)                           ...      0.08619168 Eh     54.09 kcal/mol


Timings for individual modules:

Sum of individual times         ...     2440.243 sec (=  40.671 min)
GTO integral calculation        ...       17.286 sec (=   0.288 min)   0.7 %
SCF iterations                  ...      383.109 sec (=   6.385 min)  15.7 %
SCF Gradient evaluation         ...      293.504 sec (=   4.892 min)  12.0 %
Geometry relaxation             ...        0.773 sec (=   0.013 min)   0.0 %
Analytical frequency calculation...     1745.571 sec (=  29.093 min)  71.5 %
                             ****ORCA TERMINATED NORMALLY****
TOTAL RUN TIME: 0 days 0 hours 40 minutes 42 seconds 183 msec
