
                                 *****************
                                 * O   R   C   A *
                                 *****************

           --- An Ab Initio, DFT and Semiempirical electronic structure package ---

                  #######################################################
                  #                        -***-                        #
                  #  Department of molecular theory and spectroscopy    #
                  #              Directorship: Frank Neese              #
                  # Max Planck Institute for Chemical Energy Conversion #
                  #                  D-45470 Muelheim/Ruhr              #
                  #                       Germany                       #
                  #                                                     #
                  #                  All rights reserved                #
                  #                        -***-                        #
                  #######################################################


                         Program Version 3.0.3 - RELEASE   -


 With contributions from (in alphabetic order):
   Ute Becker             : Parallelization
   Dmytro Bykov           : SCF Hessian
   Dmitry Ganyushin       : Spin-Orbit,Spin-Spin,Magnetic field MRCI
   Andreas Hansen         : Spin unrestricted coupled pair/coupled cluster methods
   Dimitrios Liakos       : Extrapolation schemes; parallel MDCI
   Robert Izsak           : Overlap fitted RIJCOSX, COSX-SCS-MP3
   Christian Kollmar      : KDIIS, OOCD, Brueckner-CCSD(T), CCSD density
   Simone Kossmann        : Meta GGA functionals, TD-DFT gradient, OOMP2, MP2 Hessian
   Taras Petrenko         : DFT Hessian,TD-DFT gradient, ASA and ECA modules, normal mode analysis, Resonance Raman, ABS, FL, XAS/XES, NRVS
   Christoph Reimann      : Effective Core Potentials
   Michael Roemelt        : Restricted open shell CIS
   Christoph Riplinger    : Improved optimizer, TS searches, QM/MM, DLPNO-CCSD
   Barbara Sandhoefer     : DKH picture change effects
   Igor Schapiro          : Molecular dynamics
   Kantharuban Sivalingam : CASSCF convergence, NEVPT2
   Boris Wezisla          : Elementary symmetry handling
   Frank Wennmohs         : Technical directorship


 We gratefully acknowledge several colleagues who have allowed us to
 interface, adapt or use parts of their codes:
   Stefan Grimme, W. Hujo, H. Kruse, T. Risthaus : VdW corrections, initial TS optimization,
                                                   DFT functionals, gCP
   Ed Valeev                                     : LibInt (2-el integral package), F12 methods
   Garnet Chan, S. Sharma, R. Olivares           : DMRG
   Ulf Ekstrom                                   : XCFun DFT Library
   Mihaly Kallay                                 : mrcc  (arbitrary order and MRCC methods)
   Andreas Klamt, Michael Diedenhofen            : otool_cosmo (COSMO solvation model)
   Frank Weinhold                                : gennbo (NPA and NBO analysis)
   Christopher J. Cramer and Donald G. Truhlar   : smd solvation model


 Your calculation uses the libint2 library for the computation of 2-el integrals
 For citations please refer to: http://libint.valeyev.net

 This ORCA versions uses:
   CBLAS   interface :  Fast vector & matrix operations
   LAPACKE interface :  Fast linear algebra routines
   SCALAPACK package :  Parallel linear algebra routines


Your calculation utilizes the basis: Ahlrichs-TZV
Cite in your paper:
H - Kr: A. Schaefer, H. Horn and R. Ahlrichs, J. Chem. Phys. 97, 2571 (1992).

The def2-TZV basis will be loaded
Cite in your paper:
 	F. Weigend, R. Ahlrichs, Phys. Chem. Chem. Phys. 2005, 7, 3297.

================================================================================
                                        WARNINGS
                       Please study these warnings very carefully!
================================================================================
Now building the actual basis set
WARNING: Geometry optimizations can change the point-group symmetry!

WARNING: Geometry Optimization
  ===> : Switching off AutoStart
         For restart on a previous wavefunction, please use MOREAD


INFO   : the flag for use of LIBINT has been found!

================================================================================
                                       INPUT FILE
================================================================================
NAME = 4848_+.inp
|  1> ! NORI PBE0 def2-TZVP UseSym TightOPT Freq TightSCF Grid3 FinalGrid5 XYZFile
|  2> % pal
|  3>     nprocs 8
|  4> end
|  5> %method
|  6>     SymThresh 5.0e-2
|  7> end
|  8> % geom 
|  9>     MaxIter 10
| 10> end 
| 11> % maxcore 2000
| 12> % output
| 13>     printlevel mini
| 14>     print[ P_Basis ] 0
| 15>     print[ P_SCFInfo ] 1
| 16>     print[ P_SCFIterInfo ] 1
| 17>     print[ P_OrbEn ] 0
| 18>     print[ P_Cartesian ] 0
| 19> end
| 20> % elprop
| 21>     Dipole false
| 22> end
| 23> *xyz 1 1
| 24>  C        0.9093011098     0.1016650310     0.0070745232 
| 25>  C        2.3799207267     0.1834949982    -0.0628133433 
| 26>  N        3.1424025855     1.1820097008    -0.0426364854 
| 27>  C        4.4735963027     0.7409487008    -0.1187790883 
| 28>  O        5.3759565441     1.6841514100    -0.1067658920 
| 29>  C        4.5644548418    -0.6013615012    -0.1924102827 
| 30>  N        3.1958414525    -1.0881589968    -0.1662707261 
| 31>  H        0.5394093913    -0.9115161827    -0.1508021937 
| 32>  H        0.4727727404     0.7630501458    -0.7440675461 
| 33>  H        0.5687242088     0.4520785141     0.9852571272 
| 34>  H        6.2751866174     1.3372679352    -0.1639768650 
| 35>  H        5.3886425568    -1.2904812746    -0.2604459613 
| 36>  H        2.9328068735    -1.6040970261    -1.0147539978 
| 37>  H        2.9966040487    -1.7023314546     0.6325507314 
| 38> *
| 39> 
| 40>                          ****END OF INPUT****
================================================================================

The point group is C1 - hence turning off symmetry
If this is a round-off problem, please increase the symmetry
        detection tolerance (%method SymThresh)


                       *****************************
                       * Geometry Optimization Run *
                       *****************************

Geometry optimization settings:
Update method            Update   .... BFGS
Choice of coordinates    CoordSys .... Redundant Internals
Initial Hessian          InHess   .... Almoef's Model

Convergence Tolerances:
Energy Change            TolE     ....  1.0000e-06 Eh
Max. Gradient            TolMAXG  ....  1.0000e-04 Eh/bohr
RMS Gradient             TolRMSG  ....  3.0000e-05 Eh/bohr
Max. Displacement        TolMAXD  ....  1.0000e-03 bohr
RMS Displacement         TolRMSD  ....  6.0000e-04 bohr

------------------------------------------------------------------------------
                        ORCA OPTIMIZATION COORDINATE SETUP
------------------------------------------------------------------------------

The optimization will be done in new redundant internal coordinates
Making redundant internal coordinates   ...  (new redundants) done
Evaluating the initial hessian          ...  (Almloef) done
Evaluating the coordinates              ...  done
Calculating the B-matrix                .... done
Calculating the G-matrix                .... done
Diagonalizing the G-matrix              .... done
The first mode is                       ....   29
The number of degrees of freedom        ....   36

    -----------------------------------------------------------------
                    Redundant Internal Coordinates


    -----------------------------------------------------------------
         Definition                    Initial Value    Approx d2E/dq
    -----------------------------------------------------------------
      1. B(C   1,C   0)                  1.4746         0.457975   
      2. B(N   2,C   1)                  1.2565         0.913798   
      3. B(C   3,N   2)                  1.4044         0.530715   
      4. B(O   4,C   3)                  1.3054         0.763613   
      5. B(C   5,C   3)                  1.3474         0.730654   
      6. B(N   6,C   5)                  1.4528         0.444233   
      7. B(N   6,C   1)                  1.5144         0.354272   
      8. B(H   7,C   0)                  1.0901         0.359990   
      9. B(H   8,C   0)                  1.0919         0.357622   
     10. B(H   9,C   0)                  1.0934         0.355571   
     11. B(H  10,O   4)                  0.9655         0.509531   
     12. B(H  11,C   5)                  1.0765         0.378443   
     13. B(H  12,N   6)                  1.0273         0.406094   
     14. B(H  13,N   6)                  1.0271         0.406300   
     15. A(C   1,C   0,H   7)          112.5280         0.335405   
     16. A(C   1,C   0,H   9)          109.5881         0.334717   
     17. A(C   1,C   0,H   8)          109.4211         0.335037   
     18. A(H   7,C   0,H   9)          108.7677         0.290248   
     19. A(H   7,C   0,H   8)          109.1295         0.290510   
     20. A(H   8,C   0,H   9)          107.2641         0.289948   
     21. A(N   2,C   1,N   6)          109.9646         0.415469   
     22. A(C   0,C   1,N   6)          119.6014         0.370531   
     23. A(C   0,C   1,N   2)          130.4321         0.437873   
     24. A(C   1,N   2,C   3)          108.9501         0.446741   
     25. A(N   2,C   3,O   4)          115.3280         0.432495   
     26. A(O   4,C   3,C   5)          132.3541         0.461337   
     27. A(N   2,C   3,C   5)          112.3179         0.431903   
     28. A(C   3,O   4,H  10)          112.5610         0.382342   
     29. A(N   6,C   5,H  11)          120.5232         0.334460   
     30. A(C   3,C   5,H  11)          133.8545         0.366000   
     31. A(C   3,C   5,N   6)          105.6223         0.418372   
     32. A(C   5,N   6,H  13)          113.3951         0.335531   
     33. A(C   1,N   6,H  13)          110.1483         0.323222   
     34. A(C   5,N   6,H  12)          113.2427         0.335502   
     35. A(C   1,N   6,H  12)          109.8888         0.323195   
     36. A(H  12,N   6,H  13)          107.0003         0.297212   
     37. A(C   1,N   6,C   5)          103.1443         0.366296   
     38. D(N   6,C   1,C   0,H   8)   -128.7062         0.015464   
     39. D(N   6,C   1,C   0,H   9)    113.9406         0.015464   
     40. D(N   6,C   1,C   0,H   7)     -7.2113         0.015464   
     41. D(N   2,C   1,C   0,H   9)    -65.4942         0.015464   
     42. D(N   2,C   1,C   0,H   8)     51.8590         0.015464   
     43. D(N   2,C   1,C   0,H   7)    173.3539         0.015464   
     44. D(C   3,N   2,C   1,N   6)     -0.2304         0.066616   
     45. D(C   3,N   2,C   1,C   0)    179.2468         0.066616   
     46. D(C   5,C   3,N   2,C   1)      0.0702         0.020310   
     47. D(O   4,C   3,N   2,C   1)   -179.9857         0.020310   
     48. D(H  10,O   4,C   3,C   5)      0.1396         0.044462   
     49. D(H  10,O   4,C   3,N   2)   -179.7904         0.044462   
     50. D(H  11,C   5,C   3,N   2)   -179.9408         0.037885   
     51. D(N   6,C   5,C   3,O   4)   -179.8046         0.037885   
     52. D(N   6,C   5,C   3,N   2)      0.1270         0.037885   
     53. D(H  11,C   5,C   3,O   4)      0.1277         0.037885   
     54. D(H  13,N   6,C   5,H  11)     60.7105         0.016830   
     55. D(H  12,N   6,C   5,H  11)    -61.4651         0.016830   
     56. D(H  12,N   6,C   5,C   3)    118.4782         0.016830   
     57. D(C   1,N   6,C   5,H  11)    179.8169         0.016830   
     58. D(C   1,N   6,C   5,C   3)     -0.2398         0.016830   
     59. D(H  13,N   6,C   1,N   2)    121.6322         0.010818   
     60. D(H  13,N   6,C   1,C   0)    -57.9101         0.010818   
     61. D(H  12,N   6,C   1,N   2)   -120.7271         0.010818   
     62. D(H  12,N   6,C   1,C   0)     59.7306         0.010818   
     63. D(H  13,N   6,C   5,C   3)   -119.3462         0.016830   
     64. D(C   5,N   6,C   1,N   2)      0.2991         0.010818   
     65. D(C   5,N   6,C   1,C   0)   -179.2432         0.010818   
    -----------------------------------------------------------------

Number of atoms                         .... 14
Number of degrees of freedom            .... 65

         *************************************************************
         *                GEOMETRY OPTIMIZATION CYCLE   1            *
         *************************************************************


           ************************************************************
           *        Program running with 8 parallel MPI-processes     *
           *              working on a common directory               *
           ************************************************************
           ************************************************************
           *              Shut down parallel processing               *
           ************************************************************


           ************************************************************
           *        Program running with 8 parallel MPI-processes     *
           *              working on a common directory               *
           ************************************************************
------------
SCF SETTINGS
------------
Hamiltonian:
 Density Functional     Method          .... DFT(GTOs)
 Exchange Functional    Exchange        .... PBE
   PBE kappa parameter  XKappa          ....  0.804000
 Correlation Functional Correlation     .... PBE
 LDA part of GGA corr.  LDAOpt          .... PW91-LDA
 Gradients option       PostSCFGGA      .... off
 Hybrid DFT is turned on
   Fraction HF Exchange ScalHFX         ....  0.250000
   Scaling of DF-GGA-X  ScalDFX         ....  0.750000
   Scaling of DF-GGA-C  ScalDFC         ....  1.000000
   Scaling of DF-LDA-C  ScalLDAC        ....  1.000000
   Perturbative correction              ....  0.000000
   NL short-range parameter             ....  6.900000


General Settings:
 Integral files         IntName         .... 4848_+
 Hartree-Fock type      HFTyp           .... RHF
 Total Charge           Charge          ....    1
 Multiplicity           Mult            ....    1
 Number of Electrons    NEL             ....   52
 Basis Dimension        Dim             ....  259
 Nuclear Repulsion      ENuc            ....    305.1205513058 Eh

Convergence Acceleration:
 DIIS                   CNVDIIS         .... on
   Start iteration      DIISMaxIt       ....    12
   Startup error        DIISStart       ....  0.200000
   # of expansion vecs  DIISMaxEq       ....     5
   Bias factor          DIISBfac        ....   1.050
   Max. coefficient     DIISMaxC        ....  10.000
 Newton-Raphson         CNVNR           .... off
 SOSCF                  CNVSOSCF        .... on
   Start iteration      SOSCFMaxIt      ....   150
   Startup grad/error   SOSCFStart      ....  0.003300
 Level Shifting         CNVShift        .... on
   Level shift para.    LevelShift      ....    0.2500
   Turn off err/grad.   ShiftErr        ....    0.0010
 Zerner damping         CNVZerner       .... off
 Static damping         CNVDamp         .... on
   Fraction old density DampFac         ....    0.7000
   Max. Damping (<1)    DampMax         ....    0.9800
   Min. Damping (>=0)   DampMin         ....    0.0000
   Turn off err/grad.   DampErr         ....    0.1000
 Fernandez-Rico         CNVRico         .... off

SCF Procedure:
 Maximum # iterations   MaxIter         ....   125
 SCF integral mode      SCFMode         .... Direct
   Integral package                     .... LIBINT
 Reset frequeny         DirectResetFreq ....    20
 Integral Threshold     Thresh          ....  2.500e-11 Eh
 Primitive CutOff       TCut            ....  2.500e-12 Eh

Convergence Tolerance:
 Convergence Check Mode ConvCheckMode   .... Total+1el-Energy
 Energy Change          TolE            ....  1.000e-08 Eh
 1-El. energy change                    ....  1.000e-05 Eh
 Orbital Gradient       TolG            ....  1.000e-05
 Orbital Rotation angle TolX            ....  1.000e-05
 DIIS Error             TolErr          ....  5.000e-07


Diagonalization of the overlap matrix:
Smallest eigenvalue                        ... 1.218e-04
Time for diagonalization                   ...    0.017 sec
Threshold for overlap eigenvalues          ... 1.000e-08
Number of eigenvalues below threshold      ... 0
Time for construction of square roots      ...    0.007 sec
Total time needed                          ...    0.024 sec

-------------------
DFT GRID GENERATION
-------------------

General Integration Accuracy     IntAcc      ...  4.340
Radial Grid Type                 RadialGrid  ... Gauss-Chebyshev
Angular Grid (max. acc.)         AngularGrid ... Lebedev-194
Angular grid pruning method      GridPruning ... 3 (G Style)
Weight generation scheme         WeightScheme... Becke
Basis function cutoff            BFCut       ...    1.0000e-11
Integration weight cutoff        WCut        ...    1.0000e-14
Grids for H and He will be reduced by one unit

# of grid points (after initial pruning)     ...  33832 (   0.0 sec)
# of grid points (after weights+screening)   ...  31461 (   0.0 sec)
nearest neighbour list constructed           ...    0.0 sec
Grid point re-assignment to atoms done       ...    0.0 sec
Grid point division into batches done        ...    0.1 sec
Reduced shell lists constructed in    0.1 sec

Total number of grid points                  ...    31461
Total number of batches                      ...      497
Average number of points per batch           ...       63
Average number of grid points per atom       ...     2247
Average number of shells per batch           ...    79.80 (76.00%)
Average number of basis functions per batch  ...   203.08 (78.41%)
Average number of large shells per batch     ...    66.98 (83.94%)
Average number of large basis fcns per batch ...   170.58 (84.00%)
Maximum spatial batch extension              ...  14.60, 11.03,  7.72 au
Average spatial batch extension              ...   0.25,  0.25,  0.21 au

Time for grid setup =    0.141 sec

Loading Hartree-Fock densities                     ... done
Calculating cut-offs                               ... done
Setting up the integral package                    ... done
Initializing the effective Hamiltonian             ... done
Starting the Coulomb interaction                   ... done (   0.0 sec)
Reading the grid                                   ... done
Mapping shells                                     ... done
Starting the XC term evaluation                    ... done (   0.1 sec)
  promolecular density results
     # of electrons  =     52.996903010
     EX              =    -43.827821182
     EC              =     -1.775148583
     EX+EC           =    -45.602969765
Transforming the Hamiltonian                       ... done (   0.0 sec)
Diagonalizing the Hamiltonian                      ... done (   0.0 sec)
Back transforming the eigenvectors                 ... done (   0.0 sec)
Now organizing SCF variables                       ... done
--------------
SCF ITERATIONS
--------------
ITER       Energy         Delta-E        Max-DP      RMS-DP      [F,P]     Damp
               ***  Starting incremental Fock matrix formation  ***
  0   -340.6367462204   0.000000000000 0.04292296  0.00099349  0.2345416 0.7000
  1   -340.7214532267  -0.084707006310 0.03428651  0.00071645  0.1036425 0.7000
                               ***Turning on DIIS***
  2   -340.7538566588  -0.032403432096 0.04267937  0.00113543  0.0384164 0.0000
  3   -340.8060170592  -0.052160400450 0.03589101  0.00057682  0.0556333 0.0000
  4   -340.8170278927  -0.011010833476 0.00962400  0.00018420  0.0125653 0.0000
                      *** Initiating the SOSCF procedure ***
                           *** Shutting down DIIS ***
                      *** Re-Reading the Fockian *** 
                      *** Removing any level shift *** 
ITER      Energy       Delta-E        Grad      Rot      Max-DP    RMS-DP
  5   -340.81775560  -0.0007277046  0.000668  0.000668  0.003503  0.000057
               *** Restarting incremental Fock matrix formation ***
  6   -340.81777961  -0.0000240146  0.000251  0.001089  0.001129  0.000028
  7   -340.81778041  -0.0000008023  0.000358  0.000540  0.000737  0.000014
  8   -340.81778243  -0.0000020150  0.000090  0.000275  0.000505  0.000009
  9   -340.81778252  -0.0000000906  0.000068  0.000088  0.000087  0.000001
 10   -340.81778258  -0.0000000590  0.000024  0.000043  0.000120  0.000002
 11   -340.81778259  -0.0000000123  0.000012  0.000018  0.000017  0.000000
 12   -340.81778259  -0.0000000037  0.000007  0.000013  0.000031  0.000001
                  ***Gradient check signals convergence***
              ***Rediagonalizing the Fockian in SOSCF/NRSCF***

               *****************************************************
               *                     SUCCESS                       *
               *           SCF CONVERGED AFTER  13 CYCLES          *
               *****************************************************

Setting up the final grid:

General Integration Accuracy     IntAcc      ...  5.010
Radial Grid Type                 RadialGrid  ... Gauss-Chebyshev
Angular Grid (max. acc.)         AngularGrid ... Lebedev-434
Angular grid pruning method      GridPruning ... 3 (G Style)
Weight generation scheme         WeightScheme... Becke
Basis function cutoff            BFCut       ...    1.0000e-11
Integration weight cutoff        WCut        ...    1.0000e-14
Grids for H and He will be reduced by one unit

# of grid points (after initial pruning)     ... 121658 (   0.0 sec)
# of grid points (after weights+screening)   ... 112136 (   0.1 sec)
nearest neighbour list constructed           ...    0.0 sec
Grid point re-assignment to atoms done       ...    0.0 sec
Grid point division into batches done        ...    0.7 sec
Reduced shell lists constructed in    0.9 sec

Total number of grid points                  ...   112136
Total number of batches                      ...     1758
Average number of points per batch           ...       63
Average number of grid points per atom       ...     8010
Average number of shells per batch           ...    76.33 (72.69%)
Average number of basis functions per batch  ...   194.15 (74.96%)
Average number of large shells per batch     ...    63.22 (82.83%)
Average number of large basis fcns per batch ...   160.47 (82.65%)
Maximum spatial batch extension              ...  12.76, 16.96,  6.99 au
Average spatial batch extension              ...   0.16,  0.18,  0.15 au

Final grid set up in    1.0 sec
Final integration                            ... done (   0.7 sec)
Change in XC energy                          ...     0.000299815
Integrated number of electrons               ...    51.999985139
Previous integrated no of electrons          ...    51.999637918
Total Energy       :         -340.81748278 Eh           -9274.11519 eV
  Last Energy change         ...   -2.4053e-09  Tolerance :   1.0000e-08
  Last MAX-Density change    ...    8.6271e-06  Tolerance :   1.0000e-07
             **** THE GBW FILE WAS UPDATED (4848_+.gbw) ****
             **** DENSITY FILE WAS UPDATED (4848_+.scfp.tmp) ****
             **** ENERGY FILE WAS UPDATED (4848_+.en.tmp) ****
Total SCF time: 0 days 0 hours 1 min 1 sec 
           ************************************************************
           *              Shut down parallel processing               *
           ************************************************************

-------------------------   --------------------
FINAL SINGLE POINT ENERGY      -340.817482782602
-------------------------   --------------------



           ************************************************************
           *        Program running with 8 parallel MPI-processes     *
           *              working on a common directory               *
           ************************************************************
------------------------------------------------------------------------------
                         ORCA SCF GRADIENT CALCULATION
------------------------------------------------------------------------------

Gradient of the Kohn-Sham DFT energy:
Kohn-Sham wavefunction type      ... RKS
Hartree-Fock exchange scaling    ...    0.250
Number of operators              ...    1
Number of atoms                  ...   14
Basis set dimensions             ...  259
Integral neglect threshold       ... 2.5e-11
Integral primitive cutoff        ... 2.5e-12

Nuclear repulsion gradient       ... done
One Electron Gradient            ... done
Pre-screening matrix             ... done
Starting the two electron gradient:
Two electron gradient done
Exchange-correlation gradient    ... done

------------------
CARTESIAN GRADIENT
------------------

   1   C   :   -0.000060402    0.000006499    0.000044879
   2   C   :    0.000129850    0.000055865    0.000029555
   3   N   :   -0.000128913    0.000133707   -0.000124035
   4   C   :    0.000117805    0.000092225    0.000109611
   5   O   :   -0.000043925   -0.000043356   -0.000192468
   6   C   :    0.000107722   -0.000030856   -0.000024609
   7   N   :   -0.000039563   -0.000208881    0.000267463
   8   H   :   -0.000042030    0.000132575    0.000025713
   9   H   :   -0.000054435   -0.000026656   -0.000093239
  10   H   :    0.000150109   -0.000092959    0.000083740
  11   H   :   -0.000028676   -0.000028823    0.000038409
  12   H   :   -0.000060317    0.000112553   -0.000032086
  13   H   :    0.000006231   -0.000152346   -0.000070312
  14   H   :   -0.000053456    0.000050455   -0.000062621

Norm of the cartesian gradient     ...    0.000640410
RMS gradient                       ...    0.000098817
MAX gradient                       ...    0.000267463

-------
TIMINGS
-------

Total SCF gradient time            ...       22.360 sec

One electron gradient       ....       0.056 sec  (  0.2%)
Prescreening matrices       ....       0.408 sec  (  1.8%)
Two electron gradient       ....      18.777 sec  ( 84.0%)
XC gradient                 ....       2.046 sec  (  9.1%)
           ************************************************************
           *              Shut down parallel processing               *
           ************************************************************
------------------------------------------------------------------------------
                         ORCA GEOMETRY RELAXATION STEP
------------------------------------------------------------------------------

Reading the OPT-File                    .... done
Getting information on internals        .... done
Copying old internal coords+grads       .... done
Making the new internal coordinates     .... (new redundants).... done
Validating the new internal coordinates .... (new redundants).... done
Calculating the B-matrix                .... done
Calculating the G,G- and P matrices     .... done
Transforming gradient to internals      .... done
Projecting the internal gradient        .... done
Number of atoms                         ....  14
Number of internal coordinates          ....  65
Current Energy                          ....  -340.817482783 Eh
Current gradient norm                   ....     0.000640410 Eh/bohr
Maximum allowed component of the step   ....  0.300
Current trust radius                    ....  0.300
Evaluating the initial hessian          ....  (Almloef) done
Projecting the Hessian                  .... done
Forming the augmented Hessian           .... done
Diagonalizing the augmented Hessian     .... done
Last element of RFO vector              ....  0.999739440
Lowest eigenvalues of augmented Hessian:
 -0.000008663  0.015470901  0.017727481  0.021248603  0.026398675
Length of the computed step             ....  0.022832508
The final length of the internal step   ....  0.022832508
Converting the step to cartesian space:
 Initial RMS(Int)=    0.0028320241
Transforming coordinates:
 Iter   0:  RMS(Cart)=    0.0043520768 RMS(Int)=    0.0028319851
 Iter   1:  RMS(Cart)=    0.0000141562 RMS(Int)=    0.0000108944
 Iter   2:  RMS(Cart)=    0.0000000947 RMS(Int)=    0.0000000605
done
Storing new coordinates                 .... done

                                .--------------------.
          ----------------------|Geometry convergence|---------------------
          Item                value                 Tolerance   Converged
          -----------------------------------------------------------------
          RMS gradient        0.00006548            0.00003000      NO
          MAX gradient        0.00016567            0.00010000      NO
          RMS step            0.00283202            0.00060000      NO
          MAX step            0.00951411            0.00100000      NO
          ....................................................
          Max(Bonds)      0.0002      Max(Angles)    0.02
          Max(Dihed)        0.55      Max(Improp)    0.00
          -----------------------------------------------------------------

The optimization has not yet converged - more geometry cycles are needed


    ---------------------------------------------------------------------------
                         Redundant Internal Coordinates
                            (Angstroem and degrees)

        Definition                    Value    dE/dq     Step     New-Value
    ----------------------------------------------------------------------------
     1. B(C   1,C   0)                1.4746 -0.000055  0.0001    1.4746   
     2. B(N   2,C   1)                1.2565 -0.000138  0.0001    1.2566   
     3. B(C   3,N   2)                1.4044 -0.000036  0.0000    1.4045   
     4. B(O   4,C   3)                1.3054 -0.000166  0.0001    1.3055   
     5. B(C   5,C   3)                1.3474 -0.000031  0.0000    1.3474   
     6. B(N   6,C   5)                1.4528 -0.000114  0.0001    1.4530   
     7. B(N   6,C   1)                1.5144  0.000045 -0.0001    1.5144   
     8. B(H   7,C   0)                1.0901 -0.000013  0.0000    1.0901   
     9. B(H   8,C   0)                1.0919 -0.000020  0.0000    1.0919   
    10. B(H   9,C   0)                1.0934 -0.000011  0.0000    1.0935   
    11. B(H  10,O   4)                0.9655  0.000046 -0.0000    0.9655   
    12. B(H  11,C   5)                1.0765  0.000051 -0.0001    1.0764   
    13. B(H  12,N   6)                1.0273  0.000157 -0.0002    1.0271   
    14. B(H  13,N   6)                1.0271  0.000089 -0.0001    1.0270   
    15. A(C   1,C   0,H   7)          112.53 -0.000065    0.01    112.54   
    16. A(C   1,C   0,H   9)          109.59  0.000010   -0.00    109.59   
    17. A(C   1,C   0,H   8)          109.42  0.000089   -0.02    109.41   
    18. A(H   7,C   0,H   9)          108.77  0.000033   -0.01    108.76   
    19. A(H   7,C   0,H   8)          109.13  0.000003   -0.00    109.13   
    20. A(H   8,C   0,H   9)          107.26 -0.000072    0.02    107.28   
    21. A(N   2,C   1,N   6)          109.96 -0.000035    0.01    109.97   
    22. A(C   0,C   1,N   6)          119.60  0.000008   -0.00    119.60   
    23. A(C   0,C   1,N   2)          130.43  0.000026   -0.00    130.43   
    24. A(C   1,N   2,C   3)          108.95  0.000034   -0.00    108.95   
    25. A(N   2,C   3,O   4)          115.33  0.000045   -0.01    115.32   
    26. A(O   4,C   3,C   5)          132.35 -0.000040    0.01    132.36   
    27. A(N   2,C   3,C   5)          112.32 -0.000005    0.00    112.32   
    28. A(C   3,O   4,H  10)          112.56  0.000028   -0.00    112.56   
    29. A(N   6,C   5,H  11)          120.52 -0.000042    0.01    120.53   
    30. A(C   3,C   5,H  11)          133.85  0.000053   -0.01    133.85   
    31. A(C   3,C   5,N   6)          105.62 -0.000011    0.00    105.62   
    32. A(C   5,N   6,H  13)          113.40 -0.000024    0.00    113.40   
    33. A(C   1,N   6,H  13)          110.15 -0.000013    0.00    110.15   
    34. A(C   5,N   6,H  12)          113.24  0.000032   -0.01    113.24   
    35. A(C   1,N   6,H  12)          109.89 -0.000018    0.00    109.89   
    36. A(H  12,N   6,H  13)          107.00  0.000005   -0.00    107.00   
    37. A(C   1,N   6,C   5)          103.14  0.000017   -0.00    103.14   
    38. D(N   6,C   1,C   0,H   8)   -128.71  0.000131   -0.53   -129.24   
    39. D(N   6,C   1,C   0,H   9)    113.94  0.000160   -0.55    113.40   
    40. D(N   6,C   1,C   0,H   7)     -7.21  0.000153   -0.54     -7.75   
    41. D(N   2,C   1,C   0,H   9)    -65.49  0.000135   -0.47    -65.96   
    42. D(N   2,C   1,C   0,H   8)     51.86  0.000106   -0.46     51.40   
    43. D(N   2,C   1,C   0,H   7)    173.35  0.000128   -0.47    172.89   
    44. D(C   3,N   2,C   1,N   6)     -0.23 -0.000039    0.08     -0.15   
    45. D(C   3,N   2,C   1,C   0)    179.25 -0.000016    0.01    179.26   
    46. D(C   5,C   3,N   2,C   1)      0.07  0.000005    0.01      0.08   
    47. D(O   4,C   3,N   2,C   1)   -179.99 -0.000022    0.03   -179.96   
    48. D(H  10,O   4,C   3,C   5)      0.14  0.000008   -0.02      0.12   
    49. D(H  10,O   4,C   3,N   2)   -179.79  0.000042   -0.05   -179.84   
    50. D(H  11,C   5,C   3,N   2)   -179.94  0.000022   -0.06   -180.00   
    51. D(N   6,C   5,C   3,O   4)   -179.80  0.000066   -0.12   -179.93   
    52. D(N   6,C   5,C   3,N   2)      0.13  0.000032   -0.09      0.03   
    53. D(H  11,C   5,C   3,O   4)      0.13  0.000055   -0.08      0.04   
    54. D(H  13,N   6,C   5,H  11)     60.71 -0.000025    0.09     60.80   
    55. D(H  12,N   6,C   5,H  11)    -61.47 -0.000037    0.10    -61.37   
    56. D(H  12,N   6,C   5,C   3)    118.48 -0.000046    0.13    118.61   
    57. D(C   1,N   6,C   5,H  11)    179.82 -0.000042    0.10    179.92   
    58. D(C   1,N   6,C   5,C   3)     -0.24 -0.000051    0.13     -0.11   
    59. D(H  13,N   6,C   1,N   2)    121.63  0.000032   -0.13    121.50   
    60. D(H  13,N   6,C   1,C   0)    -57.91  0.000012   -0.07    -57.98   
    61. D(H  12,N   6,C   1,N   2)   -120.73  0.000020   -0.13   -120.85   
    62. D(H  12,N   6,C   1,C   0)     59.73 -0.000001   -0.07     59.66   
    63. D(H  13,N   6,C   5,C   3)   -119.35 -0.000033    0.13   -119.22   
    64. D(C   5,N   6,C   1,N   2)      0.30  0.000057   -0.14      0.16   
    65. D(C   5,N   6,C   1,C   0)   -179.24  0.000037   -0.07   -179.32   
    ----------------------------------------------------------------------------

         *************************************************************
         *                GEOMETRY OPTIMIZATION CYCLE   2            *
         *************************************************************
---------------------------------
CARTESIAN COORDINATES (ANGSTROEM)
---------------------------------
  C      1.317815    0.013324   -2.187244
  C      0.525387   -0.001751   -0.943733
  N      0.894078   -0.001432    0.257555
  C     -0.242027   -0.002296    1.083252
  O      0.000057   -0.001178    2.366110
  C     -1.388755   -0.004853    0.375768
  N     -0.987034   -0.006579   -1.020569
  H      0.701494   -0.116084   -3.077033
  H      2.065104   -0.781978   -2.150900
  H      1.856295    0.961632   -2.267311
  H     -0.807404   -0.004360    2.895374
  H     -2.430964   -0.006125    0.644926
  H     -1.308264   -0.836347   -1.533581
  H     -1.317486    0.814807   -1.541056

----------------------------
CARTESIAN COORDINATES (A.U.)
----------------------------
  NO LB      ZA    FRAG    MASS        X           Y           Z
   0 C     6.0000    0    12.011          2.490309494313689          0.025179549495425         -4.133292964433880
   1 C     6.0000    0    12.011          0.992836917883203         -0.003308282609903         -1.783396341077676
   2 N     7.0000    0    14.007          1.689563239612391         -0.002706706508786          0.486707902157639
   3 C     6.0000    0    12.011         -0.457364180927853         -0.004339420431613          2.047049784441227
   4 O     8.0000    0    15.999          0.000106797149349         -0.002226908020098          4.471299509051919
   5 C     6.0000    0    12.011         -2.624365758956591         -0.009171218154438          0.710098958485536
   6 N     7.0000    0    14.007         -1.865224337401591         -0.012432813173822         -1.928596762452067
   7 H     1.0000    0     1.008          1.325630706780951         -0.219367274155337         -5.814750024660761
   8 H     1.0000    0     1.008          3.902480772223327         -1.477724162106841         -4.064611399719637
   9 H     1.0000    0     1.008          3.507888712479483          1.817220544543769         -4.284596432694192
  10 H     1.0000    0     1.008         -1.525772676506206         -0.008238579367059          5.471463786239917
  11 H     1.0000    0     1.008         -4.593856374511270         -0.011574507350526          1.218733439684501
  12 H     1.0000    0     1.008         -2.472261057142995         -1.580466774734677         -2.898047261808734
  13 H     1.0000    0     1.008         -2.489687094823412          1.539762965235660         -2.912172957217908

--------------------------------
INTERNAL COORDINATES (ANGSTROEM)
--------------------------------
 C      0   0   0   0.000000     0.000     0.000
 C      1   0   0   1.474616     0.000     0.000
 N      2   1   0   1.256593   130.428     0.000
 C      3   2   1   1.404461   108.947   179.260
 O      4   3   2   1.305500   115.322   180.044
 C      4   3   2   1.347414   112.318     0.076
 N      6   4   3   1.452977   105.623     0.034
 H      1   2   3   1.090102   112.537   172.888
 H      1   2   3   1.091910   109.406    51.402
 H      1   2   3   1.093461   109.588   294.036
 H      5   4   3   0.965465   112.557   180.163
 H      6   4   3   1.076405   133.847   180.004
 H      7   6   4   1.027075   113.235   118.609
 H      7   6   4   1.027025   113.399   240.780

---------------------------
INTERNAL COORDINATES (A.U.)
---------------------------
 C      0   0   0   0.000000     0.000     0.000
 C      1   0   0   2.786620     0.000     0.000
 N      2   1   0   2.374616   130.428     0.000
 C      3   2   1   2.654047   108.947   179.260
 O      4   3   2   2.467037   115.322   180.044
 C      4   3   2   2.546244   112.318     0.076
 N      6   4   3   2.745728   105.623     0.034
 H      1   2   3   2.059995   112.537   172.888
 H      1   2   3   2.063411   109.406    51.402
 H      1   2   3   2.066342   109.588   294.036
 H      5   4   3   1.824465   112.557   180.163
 H      6   4   3   2.034111   133.847   180.004
 H      7   6   4   1.940891   113.235   118.609
 H      7   6   4   1.940796   113.399   240.780



           ************************************************************
           *        Program running with 8 parallel MPI-processes     *
           *              working on a common directory               *
           ************************************************************
           ************************************************************
           *              Shut down parallel processing               *
           ************************************************************


           ************************************************************
           *        Program running with 8 parallel MPI-processes     *
           *              working on a common directory               *
           ************************************************************

Diagonalization of the overlap matrix:
Smallest eigenvalue                        ... 1.218e-04
Time for diagonalization                   ...    0.130 sec
Threshold for overlap eigenvalues          ... 1.000e-08
Number of eigenvalues below threshold      ... 0
Time for construction of square roots      ...    0.020 sec
Total time needed                          ...    0.150 sec

-------------------
DFT GRID GENERATION
-------------------

General Integration Accuracy     IntAcc      ...  4.340
Radial Grid Type                 RadialGrid  ... Gauss-Chebyshev
Angular Grid (max. acc.)         AngularGrid ... Lebedev-194
Angular grid pruning method      GridPruning ... 3 (G Style)
Weight generation scheme         WeightScheme... Becke
Basis function cutoff            BFCut       ...    1.0000e-11
Integration weight cutoff        WCut        ...    1.0000e-14
Grids for H and He will be reduced by one unit

# of grid points (after initial pruning)     ...  33832 (   0.0 sec)
# of grid points (after weights+screening)   ...  31461 (   0.1 sec)
nearest neighbour list constructed           ...    0.0 sec
Grid point re-assignment to atoms done       ...    0.0 sec
Grid point division into batches done        ...    0.1 sec
Reduced shell lists constructed in    0.1 sec

Total number of grid points                  ...    31461
Total number of batches                      ...      497
Average number of points per batch           ...       63
Average number of grid points per atom       ...     2247
Average number of shells per batch           ...    79.72 (75.92%)
Average number of basis functions per batch  ...   202.81 (78.31%)
Average number of large shells per batch     ...    66.91 (83.93%)
Average number of large basis fcns per batch ...   170.28 (83.96%)
Maximum spatial batch extension              ...  14.60, 11.03,  7.72 au
Average spatial batch extension              ...   0.25,  0.26,  0.22 au

Time for grid setup =    0.472 sec

--------------
SCF ITERATIONS
--------------
ITER       Energy         Delta-E        Max-DP      RMS-DP      [F,P]     Damp
               ***  Starting incremental Fock matrix formation  ***
                      *** Initiating the SOSCF procedure ***
                      *** Re-Reading the Fockian *** 
                      *** Removing any level shift *** 
ITER      Energy       Delta-E        Grad      Rot      Max-DP    RMS-DP
  0   -340.81777597 -340.8177759747  0.000478  0.000478  0.000934  0.000019
               *** Restarting incremental Fock matrix formation ***
  1   -340.81778888  -0.0000129014  0.000156  0.000291  0.000351  0.000008
  2   -340.81779029  -0.0000014128  0.000019  0.000062  0.000063  0.000002
  3   -340.81779030  -0.0000000126  0.000037  0.000053  0.000039  0.000001
  4   -340.81779032  -0.0000000220  0.000015  0.000022  0.000017  0.000000
  5   -340.81779033  -0.0000000025  0.000007  0.000007  0.000010  0.000000
  6   -340.81779033  -0.0000000016  0.000003  0.000006  0.000004  0.000000
                  ***Gradient check signals convergence***
              ***Rediagonalizing the Fockian in SOSCF/NRSCF***

               *****************************************************
               *                     SUCCESS                       *
               *           SCF CONVERGED AFTER   7 CYCLES          *
               *****************************************************

Setting up the final grid:

General Integration Accuracy     IntAcc      ...  5.010
Radial Grid Type                 RadialGrid  ... Gauss-Chebyshev
Angular Grid (max. acc.)         AngularGrid ... Lebedev-434
Angular grid pruning method      GridPruning ... 3 (G Style)
Weight generation scheme         WeightScheme... Becke
Basis function cutoff            BFCut       ...    1.0000e-11
Integration weight cutoff        WCut        ...    1.0000e-14
Grids for H and He will be reduced by one unit

# of grid points (after initial pruning)     ... 121658 (   0.0 sec)
# of grid points (after weights+screening)   ... 112143 (   0.1 sec)
nearest neighbour list constructed           ...    0.0 sec
Grid point re-assignment to atoms done       ...    0.0 sec
Grid point division into batches done        ...    0.7 sec
Reduced shell lists constructed in    0.9 sec

Total number of grid points                  ...   112143
Total number of batches                      ...     1759
Average number of points per batch           ...       63
Average number of grid points per atom       ...     8010
Average number of shells per batch           ...    76.39 (72.76%)
Average number of basis functions per batch  ...   194.35 (75.04%)
Average number of large shells per batch     ...    63.36 (82.94%)
Average number of large basis fcns per batch ...   160.76 (82.72%)
Maximum spatial batch extension              ...  12.76, 16.96,  6.99 au
Average spatial batch extension              ...   0.17,  0.18,  0.15 au

Final grid set up in    1.0 sec
Final integration                            ... done (   0.5 sec)
Change in XC energy                          ...     0.000299399
Integrated number of electrons               ...    51.999984914
Previous integrated no of electrons          ...    51.999628026
Total Energy       :         -340.81749093 Eh           -9274.11542 eV
  Last Energy change         ...   -1.2449e-10  Tolerance :   1.0000e-08
  Last MAX-Density change    ...    2.2172e-06  Tolerance :   1.0000e-07
             **** THE GBW FILE WAS UPDATED (4848_+.gbw) ****
             **** DENSITY FILE WAS UPDATED (4848_+.scfp.tmp) ****
             **** ENERGY FILE WAS UPDATED (4848_+.en.tmp) ****
Total SCF time: 0 days 0 hours 0 min 29 sec 
           ************************************************************
           *              Shut down parallel processing               *
           ************************************************************

-------------------------   --------------------
FINAL SINGLE POINT ENERGY      -340.817490928911
-------------------------   --------------------



           ************************************************************
           *        Program running with 8 parallel MPI-processes     *
           *              working on a common directory               *
           ************************************************************
------------------------------------------------------------------------------
                         ORCA SCF GRADIENT CALCULATION
------------------------------------------------------------------------------

Gradient of the Kohn-Sham DFT energy:
Kohn-Sham wavefunction type      ... RKS
Hartree-Fock exchange scaling    ...    0.250
Number of operators              ...    1
Number of atoms                  ...   14
Basis set dimensions             ...  259
Integral neglect threshold       ... 2.5e-11
Integral primitive cutoff        ... 2.5e-12

Nuclear repulsion gradient       ... done
One Electron Gradient            ... done
Pre-screening matrix             ... done
Starting the two electron gradient:
Two electron gradient done
Exchange-correlation gradient    ... done

------------------
CARTESIAN GRADIENT
------------------

   1   C   :   -0.000061441    0.000048877    0.000002535
   2   C   :    0.000061892   -0.000096282   -0.000009981
   3   N   :   -0.000072406    0.000248968   -0.000024732
   4   C   :    0.000084761    0.000005709    0.000062597
   5   O   :   -0.000046146    0.000017981   -0.000053335
   6   C   :    0.000020978   -0.000141448   -0.000011893
   7   N   :   -0.000085216    0.000000481    0.000070206
   8   H   :   -0.000027445    0.000124654    0.000005979
   9   H   :   -0.000036438   -0.000090327   -0.000108629
  10   H   :    0.000129280   -0.000098657    0.000106501
  11   H   :    0.000012142   -0.000024013    0.000008170
  12   H   :   -0.000004971    0.000078464   -0.000026051
  13   H   :    0.000054011   -0.000032872    0.000005699
  14   H   :   -0.000029001   -0.000041534   -0.000027067

Norm of the cartesian gradient     ...    0.000476242
RMS gradient                       ...    0.000073486
MAX gradient                       ...    0.000248968

-------
TIMINGS
-------

Total SCF gradient time            ...       22.618 sec

One electron gradient       ....       0.056 sec  (  0.2%)
Prescreening matrices       ....       0.412 sec  (  1.8%)
Two electron gradient       ....      18.851 sec  ( 83.3%)
XC gradient                 ....       2.055 sec  (  9.1%)
           ************************************************************
           *              Shut down parallel processing               *
           ************************************************************
------------------------------------------------------------------------------
                         ORCA GEOMETRY RELAXATION STEP
------------------------------------------------------------------------------

Reading the OPT-File                    .... done
Getting information on internals        .... done
Copying old internal coords+grads       .... done
Making the new internal coordinates     .... (new redundants).... done
Validating the new internal coordinates .... (new redundants).... done
Calculating the B-matrix                .... done
Calculating the G,G- and P matrices     .... done
Transforming gradient to internals      .... done
Projecting the internal gradient        .... done
Number of atoms                         ....  14
Number of internal coordinates          ....  65
Current Energy                          ....  -340.817490929 Eh
Current gradient norm                   ....     0.000476242 Eh/bohr
Maximum allowed component of the step   ....  0.300
Current trust radius                    ....  0.300
Updating the Hessian (BFGS)             .... done
Forming the augmented Hessian           .... done
Diagonalizing the augmented Hessian     .... done
Last element of RFO vector              ....  0.911196142
Lowest eigenvalues of augmented Hessian:
 -0.000160532  0.000783821  0.021178535  0.023946711  0.028069513
Length of the computed step             ....  0.452123077
Warning: the length of the step is outside the trust region - taking restricted step instead
The input lambda is                     ....    -0.000161
   iter:   1  x=   -0.000380  g=  521.404627 f(x)=     0.114415
   iter:   2  x=   -0.000520  g=  248.703551 f(x)=     0.034793
   iter:   3  x=   -0.000556  g=  168.129586 f(x)=     0.006125
   iter:   4  x=   -0.000558  g=  153.031179 f(x)=     0.000281
   iter:   5  x=   -0.000558  g=  152.319447 f(x)=     0.000001
   iter:   6  x=   -0.000558  g=  152.317786 f(x)=     0.000000
   iter:   7  x=   -0.000558  g=  152.317786 f(x)=     0.000000
The output lambda is                    ....    -0.000558 (7 iterations)
The final length of the internal step   ....  0.300000000
Converting the step to cartesian space:
 Initial RMS(Int)=    0.0372104204
Transforming coordinates:
 Iter   0:  RMS(Cart)=    0.0572676389 RMS(Int)=    1.5556547294
 Iter   1:  RMS(Cart)=    0.0025757947 RMS(Int)=    0.0019872537
 Iter   2:  RMS(Cart)=    0.0002344094 RMS(Int)=    0.0001517127
 Iter   3:  RMS(Cart)=    0.0000214790 RMS(Int)=    0.0000164844
 Iter   4:  RMS(Cart)=    0.0000019668 RMS(Int)=    0.0000012927
 Iter   5:  RMS(Cart)=    0.0000001800 RMS(Int)=    0.0000001368
 Iter   6:  RMS(Cart)=    0.0000000165 RMS(Int)=    0.0000000110
done
Storing new coordinates                 .... done

                                .--------------------.
          ----------------------|Geometry convergence|---------------------
          Item                value                 Tolerance   Converged
          -----------------------------------------------------------------
          Energy change      -0.00000815            0.00000100      NO
          RMS gradient        0.00005042            0.00003000      NO
          MAX gradient        0.00015367            0.00010000      NO
          RMS step            0.03721042            0.00060000      NO
          MAX step            0.12624894            0.00100000      NO
          ....................................................
          Max(Bonds)      0.0017      Max(Angles)    0.22
          Max(Dihed)        7.23      Max(Improp)    0.00
          -----------------------------------------------------------------

The optimization has not yet converged - more geometry cycles are needed


    ---------------------------------------------------------------------------
                         Redundant Internal Coordinates
                            (Angstroem and degrees)

        Definition                    Value    dE/dq     Step     New-Value
    ----------------------------------------------------------------------------
     1. B(C   1,C   0)                1.4746 -0.000004  0.0005    1.4751   
     2. B(N   2,C   1)                1.2566 -0.000023  0.0007    1.2573   
     3. B(C   3,N   2)                1.4045 -0.000019  0.0004    1.4049   
     4. B(O   4,C   3)                1.3055 -0.000051  0.0011    1.3066   
     5. B(C   5,C   3)                1.3474  0.000015  0.0001    1.3475   
     6. B(N   6,C   5)                1.4530 -0.000042  0.0013    1.4543   
     7. B(N   6,C   1)                1.5144  0.000029 -0.0007    1.5136   
     8. B(H   7,C   0)                1.0901 -0.000005  0.0002    1.0903   
     9. B(H   8,C   0)                1.0919  0.000037 -0.0001    1.0918   
    10. B(H   9,C   0)                1.0935 -0.000029  0.0004    1.0938   
    11. B(H  10,O   4)                0.9655 -0.000005 -0.0004    0.9651   
    12. B(H  11,C   5)                1.0764 -0.000002 -0.0005    1.0759   
    13. B(H  12,N   6)                1.0271  0.000007 -0.0017    1.0254   
    14. B(H  13,N   6)                1.0270 -0.000010 -0.0008    1.0262   
    15. A(C   1,C   0,H   7)          112.54 -0.000029    0.09    112.63   
    16. A(C   1,C   0,H   9)          109.59 -0.000029    0.03    109.62   
    17. A(C   1,C   0,H   8)          109.41  0.000092   -0.21    109.20   
    18. A(H   7,C   0,H   9)          108.76  0.000037   -0.11    108.65   
    19. A(H   7,C   0,H   8)          109.13 -0.000025   -0.01    109.11   
    20. A(H   8,C   0,H   9)          107.28 -0.000048    0.22    107.50   
    21. A(N   2,C   1,N   6)          109.97 -0.000022    0.06    110.03   
    22. A(C   0,C   1,N   6)          119.60 -0.000004   -0.02    119.58   
    23. A(C   0,C   1,N   2)          130.43  0.000026   -0.05    130.37   
    24. A(C   1,N   2,C   3)          108.95  0.000027   -0.05    108.90   
    25. A(N   2,C   3,O   4)          115.32  0.000032   -0.07    115.25   
    26. A(O   4,C   3,C   5)          132.36 -0.000014    0.05    132.41   
    27. A(N   2,C   3,C   5)          112.32 -0.000018    0.02    112.33   
    28. A(C   3,O   4,H  10)          112.56  0.000023   -0.05    112.50   
    29. A(N   6,C   5,H  11)          120.53 -0.000032    0.09    120.62   
    30. A(C   3,C   5,H  11)          133.85  0.000023   -0.09    133.76   
    31. A(C   3,C   5,N   6)          105.62  0.000009   -0.01    105.62   
    32. A(C   5,N   6,H  13)          113.40  0.000024   -0.04    113.36   
    33. A(C   1,N   6,H  13)          110.15  0.000020   -0.05    110.10   
    34. A(C   5,N   6,H  12)          113.24 -0.000005   -0.03    113.21   
    35. A(C   1,N   6,H  12)          109.89 -0.000042    0.15    110.04   
    36. A(H  12,N   6,H  13)          107.00 -0.000003    0.00    107.00   
    37. A(C   1,N   6,C   5)          103.14  0.000005   -0.03    103.12   
    38. D(N   6,C   1,C   0,H   8)   -129.24  0.000133   -7.08   -136.32   
    39. D(N   6,C   1,C   0,H   9)    113.40  0.000154   -7.23    106.16   
    40. D(N   6,C   1,C   0,H   7)     -7.75  0.000146   -7.18    -14.93   
    41. D(N   2,C   1,C   0,H   9)    -65.96  0.000152   -6.57    -72.53   
    42. D(N   2,C   1,C   0,H   8)     51.40  0.000131   -6.41     44.99   
    43. D(N   2,C   1,C   0,H   7)    172.89  0.000144   -6.51    166.37   
    44. D(C   3,N   2,C   1,N   6)     -0.15  0.000017    0.61      0.46   
    45. D(C   3,N   2,C   1,C   0)    179.26  0.000019   -0.01    179.25   
    46. D(C   5,C   3,N   2,C   1)      0.08 -0.000003    0.06      0.14   
    47. D(O   4,C   3,N   2,C   1)   -179.96 -0.000010    0.24   -179.71   
    48. D(H  10,O   4,C   3,C   5)      0.12  0.000016   -0.29     -0.17   
    49. D(H  10,O   4,C   3,N   2)   -179.84  0.000026   -0.52   -180.36   
    50. D(H  11,C   5,C   3,N   2)   -180.00  0.000013   -0.74   -180.73   
    51. D(N   6,C   5,C   3,O   4)   -179.93 -0.000003   -0.93   -180.86   
    52. D(N   6,C   5,C   3,N   2)      0.03 -0.000013   -0.71     -0.68   
    53. D(H  11,C   5,C   3,O   4)      0.04  0.000023   -0.96     -0.92   
    54. D(H  13,N   6,C   5,H  11)     60.80 -0.000040    1.09     61.90   
    55. D(H  12,N   6,C   5,H  11)    -61.37 -0.000051    1.15    -60.22   
    56. D(H  12,N   6,C   5,C   3)    118.61 -0.000029    1.13    119.74   
    57. D(C   1,N   6,C   5,H  11)    179.92 -0.000001    1.00    180.91   
    58. D(C   1,N   6,C   5,C   3)     -0.11  0.000021    0.98      0.87   
    59. D(H  13,N   6,C   1,N   2)    121.50  0.000017   -1.09    120.41   
    60. D(H  13,N   6,C   1,C   0)    -57.98  0.000015   -0.55    -58.53   
    61. D(H  12,N   6,C   1,N   2)   -120.85  0.000000   -1.03   -121.88   
    62. D(H  12,N   6,C   1,C   0)     59.66 -0.000002   -0.49     59.17   
    63. D(H  13,N   6,C   5,C   3)   -119.22 -0.000019    1.07   -118.15   
    64. D(C   5,N   6,C   1,N   2)      0.16 -0.000024   -1.00     -0.84   
    65. D(C   5,N   6,C   1,C   0)   -179.32 -0.000026   -0.46   -179.78   
    ----------------------------------------------------------------------------

         *************************************************************
         *                GEOMETRY OPTIMIZATION CYCLE   3            *
         *************************************************************
---------------------------------
CARTESIAN COORDINATES (ANGSTROEM)
---------------------------------
  C      1.318131    0.002393   -2.187581
  C      0.524637   -0.011856   -0.944108
  N      0.894033   -0.024523    0.257671
  C     -0.242642   -0.017172    1.083230
  O      0.000698   -0.023003    2.366974
  C     -1.389295   -0.002008    0.375634
  N     -0.986733    0.017531   -1.021706
  H      0.719562   -0.225708   -3.069869
  H      2.126693   -0.726739   -2.105859
  H      1.775451    0.987159   -2.320126
  H     -0.806434   -0.012034    2.895995
  H     -2.430629   -0.002781    0.646004
  H     -1.327260   -0.791579   -1.551655
  H     -1.297918    0.857098   -1.523047

----------------------------
CARTESIAN COORDINATES (A.U.)
----------------------------
  NO LB      ZA    FRAG    MASS        X           Y           Z
   0 C     6.0000    0    12.011          2.490906772636159          0.004521588254692         -4.133928517071662
   1 C     6.0000    0    12.011          0.991419557473720         -0.022405283284611         -1.784105077227493
   2 N     7.0000    0    14.007          1.689477792159533         -0.046341515962234          0.486927741884071
   3 C     6.0000    0    12.011         -0.458526697780693         -0.032449734611320          2.047008208084270
   4 O     8.0000    0    15.999          0.001318217136614         -0.043470006755975          4.472931696852520
   5 C     6.0000    0    12.011         -2.625387395477590         -0.003793987797536          0.709846241614530
   6 N     7.0000    0    14.007         -1.864654804148897          0.033128801834929         -1.930744570446473
   7 H     1.0000    0     1.008          1.359774313323295         -0.426525904945671         -5.801211691486172
   8 H     1.0000    0     1.008          4.018868016944555         -1.373337161771566         -3.979495915015031
   9 H     1.0000    0     1.008          3.355116620558419          1.865460715001498         -4.384402630194662
  10 H     1.0000    0     1.008         -1.523938959710535         -0.022740105466567          5.472637856975289
  11 H     1.0000    0     1.008         -4.593222365134941         -0.005254559753488          1.220770172800157
  12 H     1.0000    0     1.008         -2.508156965191624         -1.495867304786529         -2.932202912004095
  13 H     1.0000    0     1.008         -2.452708942615541          1.619680872706130         -2.878141368769367

--------------------------------
INTERNAL COORDINATES (ANGSTROEM)
--------------------------------
 C      0   0   0   0.000000     0.000     0.000
 C      1   0   0   1.475148     0.000     0.000
 N      2   1   0   1.257333   130.373     0.000
 C      3   2   1   1.404860   108.900   179.250
 O      4   3   2   1.306616   115.255   180.289
 C      4   3   2   1.347492   112.333     0.139
 N      6   4   3   1.454303   105.614   359.322
 H      1   2   3   1.090297   112.631   166.375
 H      1   2   3   1.091826   109.196    44.990
 H      1   2   3   1.093835   109.617   287.469
 H      5   4   3   0.965114   112.504   179.641
 H      6   4   3   1.075860   133.763   179.266
 H      7   6   4   1.025409   113.207   119.736
 H      7   6   4   1.026183   113.357   241.853

---------------------------
INTERNAL COORDINATES (A.U.)
---------------------------
 C      0   0   0   0.000000     0.000     0.000
 C      1   0   0   2.787626     0.000     0.000
 N      2   1   0   2.376015   130.373     0.000
 C      3   2   1   2.654801   108.900   179.250
 O      4   3   2   2.469146   115.255   180.289
 C      4   3   2   2.546391   112.333     0.139
 N      6   4   3   2.748235   105.614   359.322
 H      1   2   3   2.060363   112.631   166.375
 H      1   2   3   2.063252   109.196    44.990
 H      1   2   3   2.067049   109.617   287.469
 H      5   4   3   1.823801   112.504   179.641
 H      6   4   3   2.033081   133.763   179.266
 H      7   6   4   1.937742   113.207   119.736
 H      7   6   4   1.939205   113.357   241.853



           ************************************************************
           *        Program running with 8 parallel MPI-processes     *
           *              working on a common directory               *
           ************************************************************
           ************************************************************
           *              Shut down parallel processing               *
           ************************************************************


           ************************************************************
           *        Program running with 8 parallel MPI-processes     *
           *              working on a common directory               *
           ************************************************************

Diagonalization of the overlap matrix:
Smallest eigenvalue                        ... 1.222e-04
Time for diagonalization                   ...    0.016 sec
Threshold for overlap eigenvalues          ... 1.000e-08
Number of eigenvalues below threshold      ... 0
Time for construction of square roots      ...    0.007 sec
Total time needed                          ...    0.024 sec

-------------------
DFT GRID GENERATION
-------------------

General Integration Accuracy     IntAcc      ...  4.340
Radial Grid Type                 RadialGrid  ... Gauss-Chebyshev
Angular Grid (max. acc.)         AngularGrid ... Lebedev-194
Angular grid pruning method      GridPruning ... 3 (G Style)
Weight generation scheme         WeightScheme... Becke
Basis function cutoff            BFCut       ...    1.0000e-11
Integration weight cutoff        WCut        ...    1.0000e-14
Grids for H and He will be reduced by one unit

# of grid points (after initial pruning)     ...  33832 (   0.0 sec)
# of grid points (after weights+screening)   ...  31484 (   0.0 sec)
nearest neighbour list constructed           ...    0.0 sec
Grid point re-assignment to atoms done       ...    0.0 sec
Grid point division into batches done        ...    0.1 sec
Reduced shell lists constructed in    0.1 sec

Total number of grid points                  ...    31484
Total number of batches                      ...      499
Average number of points per batch           ...       63
Average number of grid points per atom       ...     2249
Average number of shells per batch           ...    79.52 (75.73%)
Average number of basis functions per batch  ...   202.02 (78.00%)
Average number of large shells per batch     ...    66.91 (84.14%)
Average number of large basis fcns per batch ...   170.50 (84.40%)
Maximum spatial batch extension              ...  15.31, 12.68,  7.67 au
Average spatial batch extension              ...   0.24,  0.25,  0.21 au

Time for grid setup =    0.142 sec

--------------
SCF ITERATIONS
--------------
ITER       Energy         Delta-E        Max-DP      RMS-DP      [F,P]     Damp
               ***  Starting incremental Fock matrix formation  ***
  0   -340.8153357358   0.000000000000 0.00332616  0.00006596  0.0263289 0.7000
                      *** Initiating the SOSCF procedure ***
                      *** Re-Reading the Fockian *** 
                      *** Removing any level shift *** 
ITER      Energy       Delta-E        Grad      Rot      Max-DP    RMS-DP
  1   -340.81599298  -0.0006572429  0.001603  0.001603  0.010580  0.000207
               *** Restarting incremental Fock matrix formation ***
  2   -340.81781876  -0.0018257857  0.000987  0.002330  0.002129  0.000050
  3   -340.81788460  -0.0000658332  0.000167  0.000478  0.000525  0.000014
  4   -340.81788538  -0.0000007836  0.000249  0.000378  0.000275  0.000007
  5   -340.81788656  -0.0000011789  0.000119  0.000178  0.000127  0.000004
  6   -340.81788666  -0.0000000958  0.000052  0.000069  0.000090  0.000002
  7   -340.81788680  -0.0000001483  0.000023  0.000058  0.000037  0.000001
  8   -340.81788680   0.0000000011  0.000019  0.000035  0.000020  0.000000
  9   -340.81788681  -0.0000000096  0.000003  0.000007  0.000006  0.000000
 10   -340.81788681   0.0000000005  0.000004  0.000004  0.000004  0.000000
                  ***Gradient check signals convergence***
              ***Rediagonalizing the Fockian in SOSCF/NRSCF***

               *****************************************************
               *                     SUCCESS                       *
               *           SCF CONVERGED AFTER  11 CYCLES          *
               *****************************************************

Setting up the final grid:

General Integration Accuracy     IntAcc      ...  5.010
Radial Grid Type                 RadialGrid  ... Gauss-Chebyshev
Angular Grid (max. acc.)         AngularGrid ... Lebedev-434
Angular grid pruning method      GridPruning ... 3 (G Style)
Weight generation scheme         WeightScheme... Becke
Basis function cutoff            BFCut       ...    1.0000e-11
Integration weight cutoff        WCut        ...    1.0000e-14
Grids for H and He will be reduced by one unit

# of grid points (after initial pruning)     ... 121658 (   0.0 sec)
# of grid points (after weights+screening)   ... 112143 (   0.1 sec)
nearest neighbour list constructed           ...    0.0 sec
Grid point re-assignment to atoms done       ...    0.0 sec
Grid point division into batches done        ...    0.7 sec
Reduced shell lists constructed in    0.9 sec

Total number of grid points                  ...   112143
Total number of batches                      ...     1761
Average number of points per batch           ...       63
Average number of grid points per atom       ...     8010
Average number of shells per batch           ...    76.45 (72.81%)
Average number of basis functions per batch  ...   194.39 (75.05%)
Average number of large shells per batch     ...    63.47 (83.01%)
Average number of large basis fcns per batch ...   161.19 (82.92%)
Maximum spatial batch extension              ...  12.56, 16.96,  6.92 au
Average spatial batch extension              ...   0.17,  0.17,  0.15 au

Final grid set up in    1.0 sec
Final integration                            ... done (   0.7 sec)
Change in XC energy                          ...     0.000294952
Integrated number of electrons               ...    51.999990554
Previous integrated no of electrons          ...    51.999522702
Total Energy       :         -340.81759186 Eh           -9274.11816 eV
  Last Energy change         ...   -7.4624e-10  Tolerance :   1.0000e-08
  Last MAX-Density change    ...    1.3057e-06  Tolerance :   1.0000e-07
             **** THE GBW FILE WAS UPDATED (4848_+.gbw) ****
             **** DENSITY FILE WAS UPDATED (4848_+.scfp.tmp) ****
             **** ENERGY FILE WAS UPDATED (4848_+.en.tmp) ****
Total SCF time: 0 days 0 hours 0 min 49 sec 
           ************************************************************
           *              Shut down parallel processing               *
           ************************************************************

-------------------------   --------------------
FINAL SINGLE POINT ENERGY      -340.817591860765
-------------------------   --------------------



           ************************************************************
           *        Program running with 8 parallel MPI-processes     *
           *              working on a common directory               *
           ************************************************************
------------------------------------------------------------------------------
                         ORCA SCF GRADIENT CALCULATION
------------------------------------------------------------------------------

Gradient of the Kohn-Sham DFT energy:
Kohn-Sham wavefunction type      ... RKS
Hartree-Fock exchange scaling    ...    0.250
Number of operators              ...    1
Number of atoms                  ...   14
Basis set dimensions             ...  259
Integral neglect threshold       ... 2.5e-11
Integral primitive cutoff        ... 2.5e-12

Nuclear repulsion gradient       ... done
One Electron Gradient            ... done
Pre-screening matrix             ... done
Starting the two electron gradient:
Two electron gradient done
Exchange-correlation gradient    ... done

------------------
CARTESIAN GRADIENT
------------------

   1   C   :   -0.000079661    0.000341112   -0.000548383
   2   C   :   -0.000755816   -0.000940883   -0.000223810
   3   N   :    0.000508102    0.001108497    0.000889639
   4   C   :   -0.000311197   -0.000683732   -0.000552244
   5   O   :    0.000064149    0.000457438    0.001230604
   6   C   :   -0.000725079   -0.000811243    0.000065784
   7   N   :   -0.000255472    0.001255761   -0.001522357
   8   H   :    0.000188094    0.000051554   -0.000141907
   9   H   :    0.000079060   -0.000643918   -0.000236851
  10   H   :   -0.000031409   -0.000137104    0.000350635
  11   H   :    0.000307338    0.000043494   -0.000239118
  12   H   :    0.000427591   -0.000271637    0.000081625
  13   H   :    0.000376711    0.000910241    0.000576499
  14   H   :    0.000207589   -0.000679581    0.000269885

Norm of the cartesian gradient     ...    0.003863767
RMS gradient                       ...    0.000596192
MAX gradient                       ...    0.001522357

-------
TIMINGS
-------

Total SCF gradient time            ...       22.472 sec

One electron gradient       ....       0.056 sec  (  0.2%)
Prescreening matrices       ....       0.398 sec  (  1.8%)
Two electron gradient       ....      18.493 sec  ( 82.3%)
XC gradient                 ....       2.037 sec  (  9.1%)
           ************************************************************
           *              Shut down parallel processing               *
           ************************************************************
------------------------------------------------------------------------------
                         ORCA GEOMETRY RELAXATION STEP
------------------------------------------------------------------------------

Reading the OPT-File                    .... done
Getting information on internals        .... done
Copying old internal coords+grads       .... done
Making the new internal coordinates     .... (new redundants).... done
Validating the new internal coordinates .... (new redundants).... done
Calculating the B-matrix                .... done
Calculating the G,G- and P matrices     .... done
Transforming gradient to internals      .... done
Projecting the internal gradient        .... done
Number of atoms                         ....  14
Number of internal coordinates          ....  65
Current Energy                          ....  -340.817591861 Eh
Current gradient norm                   ....     0.003863767 Eh/bohr
Maximum allowed component of the step   ....  0.300
Current trust radius                    ....  0.300
Updating the Hessian (BFGS)             .... done
Forming the augmented Hessian           .... done
Diagonalizing the augmented Hessian     .... done
Last element of RFO vector              ....  0.732419240
Lowest eigenvalues of augmented Hessian:
 -0.000330083  0.000360472  0.021285542  0.025587348  0.029116984
Length of the computed step             ....  0.929595894
Warning: the length of the step is outside the trust region - taking restricted step instead
The input lambda is                     ....    -0.000330
   iter:   1  x=   -0.000496  g= 4665.057912 f(x)=     0.774149
   iter:   2  x=   -0.000706  g= 1536.725843 f(x)=     0.322204
   iter:   3  x=   -0.000921  g=  571.121716 f(x)=     0.123101
   iter:   4  x=   -0.001065  g=  266.728678 f(x)=     0.038297
   iter:   5  x=   -0.001105  g=  175.694940 f(x)=     0.007140
   iter:   6  x=   -0.001108  g=  157.657196 f(x)=     0.000375
   iter:   7  x=   -0.001108  g=  156.678592 f(x)=     0.000001
   iter:   8  x=   -0.001108  g=  156.675543 f(x)=     0.000000
   iter:   9  x=   -0.001108  g=  156.675543 f(x)=     0.000000
The output lambda is                    ....    -0.001108 (9 iterations)
The final length of the internal step   ....  0.300000000
Converting the step to cartesian space:
 Initial RMS(Int)=    0.0372104204
Transforming coordinates:
 Iter   0:  RMS(Cart)=    0.0572848949 RMS(Int)=    0.7796766644
 Iter   1:  RMS(Cart)=    0.0026103145 RMS(Int)=    0.0020160507
 Iter   2:  RMS(Cart)=    0.0002395301 RMS(Int)=    0.0001552106
 Iter   3:  RMS(Cart)=    0.0000221089 RMS(Int)=    0.0000169683
 Iter   4:  RMS(Cart)=    0.0000020397 RMS(Int)=    0.0000013417
 Iter   5:  RMS(Cart)=    0.0000001881 RMS(Int)=    0.0000001429
 Iter   6:  RMS(Cart)=    0.0000000174 RMS(Int)=    0.0000000116
done
Storing new coordinates                 .... done

                                .--------------------.
          ----------------------|Geometry convergence|---------------------
          Item                value                 Tolerance   Converged
          -----------------------------------------------------------------
          Energy change      -0.00010093            0.00000100      NO
          RMS gradient        0.00036051            0.00003000      NO
          MAX gradient        0.00114075            0.00010000      NO
          RMS step            0.03721042            0.00060000      NO
          MAX step            0.12684979            0.00100000      NO
          ....................................................
          Max(Bonds)      0.0014      Max(Angles)    0.22
          Max(Dihed)        7.27      Max(Improp)    0.00
          -----------------------------------------------------------------

The optimization has not yet converged - more geometry cycles are needed


    ---------------------------------------------------------------------------
                         Redundant Internal Coordinates
                            (Angstroem and degrees)

        Definition                    Value    dE/dq     Step     New-Value
    ----------------------------------------------------------------------------
     1. B(C   1,C   0)                1.4751  0.000566  0.0003    1.4755   
     2. B(N   2,C   1)                1.2573  0.000962  0.0006    1.2579   
     3. B(C   3,N   2)                1.4049  0.000096  0.0004    1.4053   
     4. B(O   4,C   3)                1.3066  0.001041  0.0009    1.3076   
     5. B(C   5,C   3)                1.3475  0.000375  0.0000    1.3475   
     6. B(N   6,C   5)                1.4543  0.000606  0.0012    1.4555   
     7. B(N   6,C   1)                1.5136 -0.000192 -0.0007    1.5130   
     8. B(H   7,C   0)                1.0903 -0.000000  0.0002    1.0905   
     9. B(H   8,C   0)                1.0918  0.000471 -0.0003    1.0916   
    10. B(H   9,C   0)                1.0938 -0.000178  0.0005    1.0943   
    11. B(H  10,O   4)                0.9651 -0.000387 -0.0003    0.9648   
    12. B(H  11,C   5)                1.0759 -0.000393 -0.0004    1.0754   
    13. B(H  12,N   6)                1.0254 -0.001141 -0.0014    1.0240   
    14. B(H  13,N   6)                1.0262 -0.000751 -0.0006    1.0255   
    15. A(C   1,C   0,H   7)          112.63  0.000370    0.08    112.71   
    16. A(C   1,C   0,H   9)          109.62 -0.000423    0.05    109.67   
    17. A(C   1,C   0,H   8)          109.20  0.000094   -0.22    108.98   
    18. A(H   7,C   0,H   9)          108.65  0.000080   -0.12    108.53   
    19. A(H   7,C   0,H   8)          109.11 -0.000319    0.01    109.12   
    20. A(H   8,C   0,H   9)          107.50  0.000191    0.21    107.71   
    21. A(N   2,C   1,N   6)          110.03  0.000121    0.06    110.09   
    22. A(C   0,C   1,N   6)          119.58 -0.000089   -0.01    119.57   
    23. A(C   0,C   1,N   2)          130.37 -0.000035   -0.05    130.32   
    24. A(C   1,N   2,C   3)          108.90 -0.000093   -0.05    108.85   
    25. A(N   2,C   3,O   4)          115.26 -0.000146   -0.06    115.19   
    26. A(O   4,C   3,C   5)          132.41  0.000222    0.05    132.46   
    27. A(N   2,C   3,C   5)          112.33 -0.000077    0.02    112.35   
    28. A(C   3,O   4,H  10)          112.50 -0.000060   -0.05    112.45   
    29. A(N   6,C   5,H  11)          120.62  0.000125    0.09    120.71   
    30. A(C   3,C   5,H  11)          133.76 -0.000261   -0.08    133.69   
    31. A(C   3,C   5,N   6)          105.61  0.000137   -0.01    105.60   
    32. A(C   5,N   6,H  13)          113.36  0.000366   -0.06    113.29   
    33. A(C   1,N   6,H  13)          110.10  0.000221   -0.07    110.04   
    34. A(C   5,N   6,H  12)          113.21 -0.000264   -0.01    113.19   
    35. A(C   1,N   6,H  12)          110.05 -0.000167    0.17    110.22   
    36. A(H  12,N   6,H  13)          107.00 -0.000055    0.00    107.00   
    37. A(C   1,N   6,C   5)          103.11 -0.000098   -0.03    103.09   
    38. D(N   6,C   1,C   0,H   8)   -136.32  0.000218   -7.11   -143.43   
    39. D(N   6,C   1,C   0,H   9)    106.16  0.000176   -7.27     98.89   
    40. D(N   6,C   1,C   0,H   7)    -14.93  0.000124   -7.20    -22.13   
    41. D(N   2,C   1,C   0,H   9)    -72.53  0.000299   -6.66    -79.19   
    42. D(N   2,C   1,C   0,H   8)     44.99  0.000340   -6.50     38.49   
    43. D(N   2,C   1,C   0,H   7)    166.37  0.000246   -6.59    159.79   
    44. D(C   3,N   2,C   1,N   6)      0.46  0.000415    0.45      0.91   
    45. D(C   3,N   2,C   1,C   0)    179.25  0.000300   -0.11    179.14   
    46. D(C   5,C   3,N   2,C   1)      0.14 -0.000059    0.05      0.19   
    47. D(O   4,C   3,N   2,C   1)   -179.71  0.000100    0.19   -179.52   
    48. D(H  10,O   4,C   3,C   5)     -0.17  0.000060   -0.30     -0.47   
    49. D(H  10,O   4,C   3,N   2)    179.64 -0.000140   -0.48    179.16   
    50. D(H  11,C   5,C   3,N   2)    179.27 -0.000056   -0.71    178.55   
    51. D(N   6,C   5,C   3,O   4)    179.14 -0.000526   -0.71    178.43   
    52. D(N   6,C   5,C   3,N   2)     -0.68 -0.000330   -0.53     -1.21   
    53. D(H  11,C   5,C   3,O   4)     -0.92 -0.000252   -0.89     -1.81   
    54. D(H  13,N   6,C   5,H  11)     61.90 -0.000093    1.01     62.91   
    55. D(H  12,N   6,C   5,H  11)    -60.22 -0.000098    1.06    -59.15   
    56. D(H  12,N   6,C   5,C   3)    119.74  0.000132    0.91    120.65   
[...]
      0      -0.009021   0.012306  -0.027877   0.012162   0.055284   0.041762
      1      -0.012057   0.041795   0.007271   0.004246  -0.009349  -0.016223
      2       0.050242  -0.060431   0.030789  -0.001631   0.011925  -0.036319
      3       0.065675  -0.028041   0.075921  -0.007325  -0.065313  -0.071522
      4      -0.009391   0.007568  -0.007280   0.001032   0.002702   0.003267
      5      -0.038992   0.017199  -0.111569   0.008230   0.040683   0.125781
      6      -0.146691  -0.018796  -0.049599   0.011442   0.054826   0.126600
      7       0.009084   0.000972  -0.001647  -0.002317  -0.006043  -0.013677
      8       0.171999   0.026280   0.098432   0.000809   0.032642  -0.108527
      9       0.142978   0.002928   0.019979  -0.015846  -0.007175  -0.084921
     10      -0.000902  -0.003570  -0.006376  -0.000990   0.002934   0.006680
     11      -0.532824  -0.040589   0.008738   0.042396  -0.047407  -0.106577
     12       0.050101  -0.036182  -0.016551   0.060924  -0.011984   0.050664
     13       0.002130  -0.007780  -0.005996  -0.010759   0.002859  -0.016816
     14       0.046788   0.049139   0.006381  -0.025357   0.016119   0.171209
     15      -0.067699   0.001332   0.033918  -0.035837  -0.012689  -0.101829
     16       0.001616  -0.006570  -0.003599   0.004444   0.001301   0.009161
     17       0.219174   0.051673  -0.015602  -0.034997   0.000836  -0.014820
     18      -0.004158   0.055765  -0.010012   0.012165   0.005736  -0.054522
     19      -0.000006  -0.010298  -0.006751   0.002307   0.000642  -0.001392
     20      -0.007393  -0.037183   0.001968  -0.005817   0.004947  -0.076710
     21       0.301569  -0.356774  -0.179270  -0.198003  -0.400652   0.147025
     22       0.020362  -0.036763  -0.030614  -0.040311  -0.160857   0.100206
     23      -0.042156   0.253501  -0.015741  -0.086459  -0.557152   0.230689
     24      -0.030905  -0.047341   0.043008   0.102417   0.348081   0.048106
     25      -0.029314   0.012409  -0.011692   0.002520  -0.023868   0.039872
     26      -0.017905  -0.045671   0.007380   0.052673   0.158372   0.065103
     27      -0.082001   0.166668   0.103910   0.015939  -0.372729   0.221884
     28      -0.025778   0.033524   0.010642   0.023949   0.172914  -0.102809
     29       0.248480  -0.520438  -0.192408  -0.134160  -0.264018   0.222291
     30      -0.465479   0.099852   0.270641  -0.680395   0.135027   0.270150
     31       0.043280  -0.017562  -0.028868   0.047063  -0.007061  -0.025047
     32       0.309050   0.059127  -0.088154   0.595826  -0.153419   0.026546
     33       0.020186   0.107141   0.028626   0.126509  -0.018443   0.336102
     34       0.089888  -0.071206  -0.029679   0.002584   0.025327   0.010213
     35       0.081214   0.054792   0.031709  -0.047182  -0.041621  -0.069810
     36       0.076417  -0.221316   0.077907   0.033944   0.119757   0.179596
     37       0.040909   0.077736  -0.144521  -0.055207   0.064460   0.174397
     38      -0.184793   0.246957   0.228332   0.100514  -0.112499   0.153319
     39      -0.090892   0.449079  -0.468473  -0.137238  -0.106190  -0.428710
     40      -0.052254  -0.212436   0.565561   0.086269  -0.012513   0.245074
     41       0.179457  -0.293631  -0.423218  -0.175944   0.120245  -0.391034
                 24         25         26         27         28         29    
      0       0.041477  -0.020463   0.068099   0.026684  -0.026125  -0.102969
      1      -0.011463  -0.004474  -0.004463   0.006759   0.010789   0.012050
      2      -0.134756   0.031274  -0.097319   0.206649  -0.069520   0.078967
      3       0.026502  -0.024926   0.007724   0.205523   0.094859   0.004639
      4      -0.002097   0.002865  -0.001733  -0.022525  -0.015080   0.001526
      5       0.319828  -0.062480   0.116681   0.045205   0.086904   0.023213
      6      -0.055805   0.039800  -0.075236  -0.100959  -0.141703   0.004674
      7       0.008638  -0.002592   0.005266   0.013142   0.011315   0.004763
      8      -0.097958   0.024254   0.089296  -0.211193   0.002103  -0.114765
      9       0.122991  -0.007020  -0.023965  -0.005354   0.005123  -0.008926
     10      -0.013142  -0.000270   0.003600   0.000535  -0.002237   0.004353
     11       0.017081   0.056161  -0.037091   0.017666   0.020949  -0.085232
     12      -0.119910  -0.038602   0.020338   0.015052   0.051383  -0.026541
     13       0.017219   0.007294   0.000384  -0.001889  -0.004585   0.006497
     14      -0.189222  -0.074585   0.001332   0.083848   0.010448  -0.006658
     15       0.091057  -0.012384   0.066738  -0.013297   0.055708   0.007533
     16      -0.014011   0.000262  -0.002060  -0.000149  -0.003246  -0.002905
     17       0.210371   0.152805  -0.152343   0.051015  -0.052874  -0.056798
     18       0.031640  -0.012394  -0.017157  -0.066868  -0.131804   0.122873
     19      -0.016064   0.002348   0.002959   0.002900   0.008011  -0.017829
     20      -0.015626  -0.063992   0.082767  -0.071962  -0.046627   0.203026
     21      -0.104304   0.070807  -0.179127  -0.089500   0.137153   0.036641
     22      -0.001590   0.012149  -0.018757  -0.112497  -0.010806   0.003821
     23       0.052254  -0.034112  -0.022531  -0.414341   0.072691   0.149360
     24      -0.082840   0.053407  -0.571635  -0.481280   0.807993   0.365829
     25      -0.023799   0.000844   0.029182  -0.019166  -0.075801  -0.035457
     26      -0.009935   0.071854  -0.280788  -0.271265   0.323101   0.147550
     27      -0.004443  -0.012352  -0.182202  -0.023554   0.067792   0.145719
     28      -0.003632  -0.006594   0.032697   0.126873  -0.017223  -0.013282
     29       0.047561   0.075304   0.082809  -0.519416  -0.037536  -0.177610
     30      -0.178504  -0.058501   0.014133  -0.005420   0.075776  -0.123803
     31       0.013839   0.009360   0.003435   0.006129  -0.004368   0.020246
     32      -0.156028  -0.170093  -0.091109   0.006744  -0.012159  -0.218484
     33      -0.326009   0.914844   0.597650   0.154206   0.231217   0.251756
     34      -0.029760  -0.079907  -0.046257  -0.003798  -0.014540  -0.041816
     35       0.083103  -0.207614  -0.176521  -0.016322   0.059839  -0.147849
     36       0.127340   0.013304  -0.055074  -0.005730  -0.071497  -0.604824
     37       0.127591   0.001291  -0.096512  -0.006007   0.053747  -0.065136
     38       0.044189  -0.114555  -0.042185  -0.119057   0.075188  -0.276277
     39      -0.552763   0.022404  -0.075802  -0.000209   0.192774  -0.234154
     40       0.232349  -0.030249   0.031309  -0.001205  -0.010341   0.031048
     41      -0.394970  -0.002900   0.144755   0.118115   0.145008  -0.122638
                 30         31         32         33         34         35    
      0       0.067418   0.101561  -0.095401  -0.016173   0.009777  -0.026648
      1       0.000731  -0.001486   0.005249   0.003740   0.000419   0.000108
      2      -0.062661  -0.046373   0.095783  -0.023028  -0.029290  -0.060766
      3       0.033960   0.048982  -0.009817   0.014819   0.033466  -0.005195
      4      -0.001935  -0.002861  -0.001947  -0.002404  -0.003298   0.001408
      5      -0.023355  -0.098654   0.066026  -0.013082  -0.012912   0.013987
      6      -0.022096   0.000018  -0.033803  -0.029337  -0.017390   0.028299
      7       0.001690   0.002192   0.002230   0.002634   0.002162  -0.003470
      8       0.041196  -0.085410   0.031747  -0.009979  -0.010245   0.048774
      9      -0.018254   0.029668  -0.037703  -0.020275  -0.011755   0.005120
     10       0.001297  -0.002336   0.003466   0.001923   0.001552  -0.000485
     11       0.060794  -0.002027   0.002083  -0.000448   0.008317   0.017043
     12       0.031295  -0.055623   0.068087   0.034542   0.010740  -0.012408
     13      -0.003316   0.004053  -0.004733  -0.002558  -0.001034   0.000834
     14       0.048264   0.047428  -0.031540  -0.007590   0.018522   0.012968
     15      -0.022013   0.003402  -0.020873  -0.011522  -0.014000  -0.000767
     16       0.001854  -0.002257   0.003102   0.000635  -0.000670  -0.000109
     17       0.039915   0.041613  -0.023751   0.001523   0.046360   0.020837
     18       0.019790  -0.066707   0.118528   0.057861   0.013321  -0.035546
     19       0.000908   0.002891  -0.005887  -0.006016  -0.005364   0.003742
     20      -0.080752   0.080048  -0.130744  -0.030789   0.012223   0.017048
     21      -0.052235  -0.532429  -0.415577  -0.109469   0.048241   0.133827
     22      -0.009193  -0.031133  -0.010026  -0.011546  -0.013681   0.049014
     23      -0.007864   0.590463   0.480960   0.132172  -0.114158   0.005582
     24      -0.016367   0.137338   0.246663  -0.356509   0.067631   0.021721
     25       0.001056  -0.017989  -0.013737   0.002679  -0.008847   0.008918
     26       0.003432   0.023999  -0.471754   0.809196  -0.090255  -0.149724
     27      -0.154144  -0.220028  -0.079436   0.045153  -0.156552   0.478359
     28       0.008831   0.036065   0.013104  -0.002119   0.018347  -0.061530
     29       0.157273   0.160432   0.098039  -0.098306   0.154703  -0.459959
     30       0.076865  -0.099672   0.056208   0.044392   0.036730   0.067562
     31      -0.008569   0.009131   0.001158  -0.001852  -0.002752  -0.012902
     32       0.100221   0.043492  -0.130736  -0.039632   0.019130   0.149280
     33      -0.111831   0.002781  -0.044751  -0.023262  -0.175952  -0.105391
     34       0.025163  -0.003931   0.008687   0.000511   0.003309   0.010600
     35       0.073926  -0.113322  -0.107009  -0.098305  -0.827337  -0.378455
     36      -0.685837   0.305803   0.139310   0.045010  -0.201957   0.200158
     37       0.028287  -0.101200   0.007615   0.088036   0.051019  -0.002124
     38      -0.572290  -0.259752  -0.029613   0.085523   0.389017  -0.432978
     39      -0.249309   0.027866  -0.208715  -0.194921   0.059553  -0.171021
     40      -0.052239   0.080625   0.001540  -0.034524   0.037310  -0.019974
     41      -0.146155   0.132817   0.366485   0.313795  -0.001202   0.251801
                 36         37         38         39         40         41    
      0      -0.074169   0.137883  -0.102622   0.053093  -0.153384   0.050103
      1       0.005800  -0.008278   0.003710  -0.010513   0.018258  -0.002495
      2       0.029827   0.208064   0.057199   0.042709   0.003474   0.056228
      3       0.006017  -0.082781  -0.062711  -0.026628   0.153787  -0.225465
      4      -0.003821   0.007843   0.003967   0.001968  -0.011508   0.022955
      5       0.041597   0.056576   0.011373  -0.058715   0.027144  -0.034099
      6      -0.039897   0.067905   0.024415  -0.070077   0.169771  -0.098156
      7       0.002801  -0.007455  -0.002827   0.006090  -0.020551   0.010626
      8       0.011556   0.035134  -0.031946  -0.001951   0.080684  -0.024944
      9      -0.025943   0.035571   0.136975  -0.015783   0.052490   0.118407
     10       0.002285  -0.001676  -0.014112  -0.000073  -0.003038  -0.012522
     11       0.003821  -0.066636  -0.018460   0.015506  -0.016056   0.035739
     12       0.058300   0.081514  -0.131225   0.019739  -0.035740   0.048065
     13      -0.004409  -0.004753   0.017788  -0.000851  -0.005044  -0.016352
     14      -0.017546  -0.181231   0.046823  -0.021318   0.037561   0.118551
     15      -0.008005  -0.003018   0.163121   0.041253   0.044578   0.164346
     16       0.001078   0.004009  -0.015797  -0.003475  -0.001642  -0.014428
     17      -0.005579  -0.021103  -0.069723  -0.011125  -0.063207  -0.011733
     18       0.021196  -0.204753   0.006352  -0.003604  -0.119508  -0.013936
     19      -0.003116   0.030952  -0.003058  -0.003911   0.017001   0.006701
     20       0.015234  -0.000059  -0.075105   0.046537  -0.042490  -0.073987
     21      -0.046872  -0.223965  -0.015344  -0.000085  -0.214475   0.057930
     22      -0.020935   0.022649  -0.010629   0.010879  -0.026824   0.026947
     23      -0.016682   0.382334  -0.010197   0.022980   0.115170  -0.004192
     24      -0.095513  -0.110724  -0.044827   0.058239  -0.150880  -0.038395
     25      -0.005703   0.032954  -0.005593   0.000167  -0.004640   0.034611
     26       0.195527   0.189911   0.112931  -0.093901   0.084630   0.074009
     27      -0.141884   0.193463  -0.208688   0.052398  -0.118260   0.160730
     28       0.020465  -0.033574   0.032108  -0.020415   0.053396  -0.073655
     29       0.118440  -0.117259   0.175388   0.016350   0.023626  -0.044634
     30       0.155488   0.322638   0.327537   0.107228  -0.492111  -0.563868
     31      -0.016363  -0.041304  -0.069288  -0.014265   0.067633   0.090724
     32       0.049426   0.118183   0.790884   0.084505  -0.443095  -0.596888
     33      -0.062378  -0.173519   0.135250   0.043652  -0.117476  -0.104984
     34       0.004793   0.045241  -0.014152  -0.015663   0.046595   0.062923
     35      -0.240343  -0.244150  -0.138738  -0.016451  -0.115455  -0.236721
     36       0.360494  -0.495471  -0.107202   0.161178  -0.108362   0.016949
     37      -0.008528  -0.251012   0.084511   0.695545   0.332880  -0.154311
     38      -0.472908   0.040673  -0.061901   0.048459  -0.001289  -0.110614
     39       0.381766   0.050925  -0.037254  -0.330878  -0.091057  -0.013277
     40       0.036958  -0.048628   0.047381  -0.528921  -0.364331   0.108874
     41      -0.557342  -0.088471   0.109693  -0.204630  -0.210868  -0.137608


-----------
IR SPECTRUM
-----------

 Mode    freq (cm**-1)   T**2         TX         TY         TZ
-------------------------------------------------------------------
  38:     11610.36  675.902004  ( 14.685715 -21.057720  -4.099295)
  39:     12773.05  3545.501171  ( 27.942392  -5.618442 -52.279604)
  40:     17751.67  6432.788268  ( 72.312735 -31.537290 -14.458768)
  41:     20709.57  13366.262331  (-115.267774   6.592153  -6.012168)

The first frequency considered to be a vibration is 38
The total number of vibrations considered is 4


--------------------------
THERMOCHEMISTRY AT 298.15K
--------------------------

Temperature         ... 298.15 K
Pressure            ... 1.00 atm
Total Mass          ... 99.11 AMU

Throughout the following assumptions are being made:
  (1) The electronic state is orbitally nondegenerate
  (2) There are no thermally accessible electronically excited states
  (3) Hindered rotations indicated by low frequency modes) are not
      treated as such but are treated as vibrations and this may
      case some error
  (4) All equations used are the standard statistical mechanics
      equations for an ideal gas
  (5) All vibrations are strinctly harmonic


------------
INNER ENERGY
------------

The inner energy is: U= E(el) + E(ZPE) + E(vib) + E(rot) + E(trans)
    E(el)   - is the total energy from the electronic structure calculation
              = E(kin-el) + E(nuc-el) + E(el-el) + E(nuc-nuc)
    E(ZPE)  - the the zero temperature vibrational energy from the frequency calculation
    E(vib)  - the the finite temperature correction to E(ZPE) due to population
              of excietd vibrational states
    E(rot)  - is the rotational thermal energy
    E(trans)- is the translational thermal energy

Summary of contributions to the inner energy U:
Electronic energy                ...   -340.81857174 Eh
Zero point energy                ...      0.14317062 Eh      89.84 kcal/mol
Thermal vibrational correction   ...      0.00000000 Eh       0.00 kcal/mol
Thermal rotational correction    ...      0.00141627 Eh       0.89 kcal/mol
Thermal translational correction ...      0.00141627 Eh       0.89 kcal/mol
-----------------------------------------------------------------------
Total thermal energy                   -340.67256858 Eh


Summary of corrections to the electronic energy:
(perhaps to be used in another calculation)
Total thermal correction                  0.00283254 Eh       1.78 kcal/mol
Non-thermal (ZPE) correction              0.14317062 Eh      89.84 kcal/mol
-----------------------------------------------------------------------
Total correction                          0.14600316 Eh      91.62 kcal/mol


--------
ENTHALPY
--------

The enthalpy is H = U + kB*T
                kB is Boltzmann's constant
Total free energy                 ...   -340.67256858 Eh 
Thermal Enthalpy correction       ...      0.00094421 Eh       0.59 kcal/mol
-----------------------------------------------------------------------
Total Enthalpy                    ...   -340.67162437 Eh


-------
ENTROPY
-------

The entropy contributions are T*S = T*(S(el)+S(vib)+S(rot)+S(trans)
     S(el)   - electronic entropy
     S(vib)  - vibrational entropy
     S(rot)  - rotational entropy
     S(trans)- translational entropy
The entropies will be listed as mutliplied by the temperature to get
units of energy

Electronic entropy                ...      0.00000000 Eh      0.00 kcal/mol
Vibrational entropy               ...      0.00000000 Eh      0.00 kcal/mol
Rotational entropy                ...      0.01184380 Eh      7.43 kcal/mol
Translational entropy             ...      0.01885862 Eh     11.83 kcal/mol
-----------------------------------------------------------------------
Final entropy term                ...      0.03070243 Eh     19.27 kcal/mol


CAUTION: The rotational entropy is not quite correctly treated here
         because it includes a symmetry number that is not yet correctly
         implemented in ORCA!
For a nonlinear molecule the correct rotational entropy is:
    S(rot) = R*(ln(qrot/sn)+1.5)
    R    = 8.31441 J/mol/K = 1.987191683e-3 kcal/mol/K
    qrot = 187701.6498333
    sn is the rotational symmetry number. We have assumed 3 here
       if it is different for your molecule then you should correct
       the printed rotational entropy by manually evaluating the equation
       as given above

For convenience we print out the resulting values for sn=1 - 12:
 sn= 1  qrot/sn=  187701.6498 T*S(rot)=     8.08 kcal/mol T*S(tot)=    19.92 kcal/mol
 sn= 2  qrot/sn=   93850.8249 T*S(rot)=     7.67 kcal/mol T*S(tot)=    19.51 kcal/mol
 sn= 3  qrot/sn=   62567.2166 T*S(rot)=     7.43 kcal/mol T*S(tot)=    19.27 kcal/mol
 sn= 4  qrot/sn=   46925.4125 T*S(rot)=     7.26 kcal/mol T*S(tot)=    19.10 kcal/mol
 sn= 5  qrot/sn=   37540.3300 T*S(rot)=     7.13 kcal/mol T*S(tot)=    18.96 kcal/mol
 sn= 6  qrot/sn=   31283.6083 T*S(rot)=     7.02 kcal/mol T*S(tot)=    18.86 kcal/mol
 sn= 7  qrot/sn=   26814.5214 T*S(rot)=     6.93 kcal/mol T*S(tot)=    18.76 kcal/mol
 sn= 8  qrot/sn=   23462.7062 T*S(rot)=     6.85 kcal/mol T*S(tot)=    18.68 kcal/mol
 sn= 9  qrot/sn=   20855.7389 T*S(rot)=     6.78 kcal/mol T*S(tot)=    18.62 kcal/mol
 sn=10  qrot/sn=   18770.1650 T*S(rot)=     6.72 kcal/mol T*S(tot)=    18.55 kcal/mol
 sn=11  qrot/sn=   17063.7863 T*S(rot)=     6.66 kcal/mol T*S(tot)=    18.50 kcal/mol
 sn=12  qrot/sn=   15641.8042 T*S(rot)=     6.61 kcal/mol T*S(tot)=    18.44 kcal/mol


-------------------
GIBBS FREE ENTHALPY
-------------------

The Gibbs free enthalpy is G = H - T*S

Total enthalpy                    ...   -340.67162437 Eh 
Total entropy correction          ...     -0.03070243 Eh    -19.27 kcal/mol
-----------------------------------------------------------------------
Final Gibbs free enthalpy         ...   -340.70232680 Eh

For completeness - the Gibbs free enthalpy minus the electronic energy
G-E(el)                           ...      0.11624494 Eh     72.94 kcal/mol


Timings for individual modules:

Sum of individual times         ...     2708.643 sec (=  45.144 min)
GTO integral calculation        ...       18.118 sec (=   0.302 min)   0.7 %
SCF iterations                  ...      515.895 sec (=   8.598 min)  19.0 %
SCF Gradient evaluation         ...      245.302 sec (=   4.088 min)   9.1 %
Geometry relaxation             ...        0.517 sec (=   0.009 min)   0.0 %
Analytical frequency calculation...     1928.811 sec (=  32.147 min)  71.2 %
                             ****ORCA TERMINATED NORMALLY****
TOTAL RUN TIME: 0 days 0 hours 45 minutes 10 seconds 288 msec
