
                                 *****************
                                 * O   R   C   A *
                                 *****************

           --- An Ab Initio, DFT and Semiempirical electronic structure package ---

                  #######################################################
                  #                        -***-                        #
                  #  Department of molecular theory and spectroscopy    #
                  #              Directorship: Frank Neese              #
                  # Max Planck Institute for Chemical Energy Conversion #
                  #                  D-45470 Muelheim/Ruhr              #
                  #                       Germany                       #
                  #                                                     #
                  #                  All rights reserved                #
                  #                        -***-                        #
                  #######################################################


                         Program Version 3.0.3 - RELEASE   -


 With contributions from (in alphabetic order):
   Ute Becker             : Parallelization
   Dmytro Bykov           : SCF Hessian
   Dmitry Ganyushin       : Spin-Orbit,Spin-Spin,Magnetic field MRCI
   Andreas Hansen         : Spin unrestricted coupled pair/coupled cluster methods
   Dimitrios Liakos       : Extrapolation schemes; parallel MDCI
   Robert Izsak           : Overlap fitted RIJCOSX, COSX-SCS-MP3
   Christian Kollmar      : KDIIS, OOCD, Brueckner-CCSD(T), CCSD density
   Simone Kossmann        : Meta GGA functionals, TD-DFT gradient, OOMP2, MP2 Hessian
   Taras Petrenko         : DFT Hessian,TD-DFT gradient, ASA and ECA modules, normal mode analysis, Resonance Raman, ABS, FL, XAS/XES, NRVS
   Christoph Reimann      : Effective Core Potentials
   Michael Roemelt        : Restricted open shell CIS
   Christoph Riplinger    : Improved optimizer, TS searches, QM/MM, DLPNO-CCSD
   Barbara Sandhoefer     : DKH picture change effects
   Igor Schapiro          : Molecular dynamics
   Kantharuban Sivalingam : CASSCF convergence, NEVPT2
   Boris Wezisla          : Elementary symmetry handling
   Frank Wennmohs         : Technical directorship


 We gratefully acknowledge several colleagues who have allowed us to
 interface, adapt or use parts of their codes:
   Stefan Grimme, W. Hujo, H. Kruse, T. Risthaus : VdW corrections, initial TS optimization,
                                                   DFT functionals, gCP
   Ed Valeev                                     : LibInt (2-el integral package), F12 methods
   Garnet Chan, S. Sharma, R. Olivares           : DMRG
   Ulf Ekstrom                                   : XCFun DFT Library
   Mihaly Kallay                                 : mrcc  (arbitrary order and MRCC methods)
   Andreas Klamt, Michael Diedenhofen            : otool_cosmo (COSMO solvation model)
   Frank Weinhold                                : gennbo (NPA and NBO analysis)
   Christopher J. Cramer and Donald G. Truhlar   : smd solvation model


 Your calculation uses the libint2 library for the computation of 2-el integrals
 For citations please refer to: http://libint.valeyev.net

 This ORCA versions uses:
   CBLAS   interface :  Fast vector & matrix operations
   LAPACKE interface :  Fast linear algebra routines
   SCALAPACK package :  Parallel linear algebra routines


Your calculation utilizes the basis: Ahlrichs-TZV
Cite in your paper:
H - Kr: A. Schaefer, H. Horn and R. Ahlrichs, J. Chem. Phys. 97, 2571 (1992).

The def2-TZV basis will be loaded
Cite in your paper:
 	F. Weigend, R. Ahlrichs, Phys. Chem. Chem. Phys. 2005, 7, 3297.

================================================================================
                                        WARNINGS
                       Please study these warnings very carefully!
================================================================================
Now building the actual basis set
WARNING: Geometry optimizations can change the point-group symmetry!

WARNING: Geometry Optimization
  ===> : Switching off AutoStart
         For restart on a previous wavefunction, please use MOREAD


INFO   : the flag for use of LIBINT has been found!

================================================================================
                                       INPUT FILE
================================================================================
NAME = 5476_+.inp
|  1> ! NORI PBE0 def2-TZVP UseSym TightOPT Freq TightSCF Grid3 FinalGrid5 XYZFile
|  2> % pal
|  3>     nprocs 8
|  4> end
|  5> %method
|  6>     SymThresh 5.0e-2
|  7> end
|  8> % geom 
|  9>     MaxIter 10
| 10> end 
| 11> % maxcore 2000
| 12> % output
| 13>     printlevel mini
| 14>     print[ P_Basis ] 0
| 15>     print[ P_SCFInfo ] 1
| 16>     print[ P_SCFIterInfo ] 1
| 17>     print[ P_OrbEn ] 0
| 18>     print[ P_Cartesian ] 0
| 19> end
| 20> % elprop
| 21>     Dipole false
| 22> end
| 23> *xyz 1 1
| 24>  C        0.9000759865     0.3498822743     0.0465867773 
| 25>  C        2.3753701138     0.0330166005     0.1475323826 
| 26>  O        3.1246566054     0.5938891210    -0.9130164166 
| 27>  C        2.9626048551     0.4594919654     1.4956432558 
| 28>  C        4.4895026107     0.5033486437     1.5243761540 
| 29>  C        5.1855257829    -0.7157643061     0.9642987970 
| 30>  N        4.8056412442    -1.9609424134     1.7303058747 
| 31>  H        0.4923162188    -0.0064657857    -0.9008414793 
| 32>  H        0.7376012747     1.4304743051     0.1152918909 
| 33>  H        0.3373084875    -0.1192564999     0.8562340863 
| 34>  H        2.4897495683    -1.0579598929     0.0313516999 
| 35>  H        2.6543047157     1.3485770322    -1.2777346936 
| 36>  H        2.5604626622    -0.1943480888     2.2816343770 
| 37>  H        2.5993692605     1.4596838711     1.7491681613 
| 38>  H        4.8323480887     1.3354246712     0.9062866931 
| 39>  H        4.8446804906     0.7091712266     2.5399962659 
| 40>  H        6.2708287050    -0.6353063435     1.0328011078 
| 41>  H        4.9065154787    -0.8929297875    -0.0748188422 
| 42>  H        5.0712403462    -1.8829231440     2.7141465684 
| 43>  H        5.2553762828    -2.7938006039     1.3468340100 
| 44>  H        3.7938612217    -2.1036228456     1.6942933296 
| 45> *
| 46> 
| 47>                          ****END OF INPUT****
================================================================================

The point group is C1 - hence turning off symmetry
If this is a round-off problem, please increase the symmetry
        detection tolerance (%method SymThresh)


                       *****************************
                       * Geometry Optimization Run *
                       *****************************

Geometry optimization settings:
Update method            Update   .... BFGS
Choice of coordinates    CoordSys .... Redundant Internals
Initial Hessian          InHess   .... Almoef's Model

Convergence Tolerances:
Energy Change            TolE     ....  1.0000e-06 Eh
Max. Gradient            TolMAXG  ....  1.0000e-04 Eh/bohr
RMS Gradient             TolRMSG  ....  3.0000e-05 Eh/bohr
Max. Displacement        TolMAXD  ....  1.0000e-03 bohr
RMS Displacement         TolRMSD  ....  6.0000e-04 bohr

------------------------------------------------------------------------------
                        ORCA OPTIMIZATION COORDINATE SETUP
------------------------------------------------------------------------------

The optimization will be done in new redundant internal coordinates
Making redundant internal coordinates   ...  (new redundants) done
Evaluating the initial hessian          ...  (Almloef) done
Evaluating the coordinates              ...  done
Calculating the B-matrix                .... done
Calculating the G-matrix                .... done
Diagonalizing the G-matrix              .... done
Small eigenvalue found = 1.506e-02
The first mode is                       ....   48
The number of degrees of freedom        ....   57

    -----------------------------------------------------------------
                    Redundant Internal Coordinates


    -----------------------------------------------------------------
         Definition                    Initial Value    Approx d2E/dq
    -----------------------------------------------------------------
      1. B(C   1,C   0)                  1.5123         0.398656   
      2. B(O   2,C   1)                  1.4145         0.511457   
      3. B(C   3,C   1)                  1.5311         0.372130   
      4. B(C   4,C   3)                  1.5278         0.376609   
      5. B(C   5,C   4)                  1.5114         0.399973   
      6. B(N   6,C   5)                  1.5105         0.359467   
      7. B(H   7,C   0)                  1.0913         0.358423   
      8. B(H   8,C   0)                  1.0949         0.353681   
      9. B(H   9,C   0)                  1.0919         0.357546   
     10. B(H  10,C   1)                  1.1031         0.343192   
     11. B(H  11,O   2)                  0.9611         0.517769   
     12. B(H  12,C   3)                  1.0986         0.348851   
     13. B(H  13,C   3)                  1.0939         0.354989   
     14. B(H  14,C   4)                  1.0918         0.357786   
     15. B(H  15,C   4)                  1.0954         0.352969   
     16. B(H  16,C   5)                  1.0904         0.359525   
     17. B(H  17,C   5)                  1.0904         0.359554   
     18. B(H  18,N   6)                  1.0220         0.413981   
     19. B(H  19,N   6)                  1.0213         0.415179   
     20. B(H  20,N   6)                  1.0224         0.413401   
     21. A(C   1,C   0,H   9)          111.3003         0.327421   
     22. A(C   1,C   0,H   7)          110.7347         0.327553   
     23. A(H   7,C   0,H   9)          108.1116         0.290302   
     24. A(H   8,C   0,H   9)          107.5188         0.289696   
     25. A(H   7,C   0,H   8)          108.7421         0.289807   
     26. A(C   1,C   0,H   8)          110.3258         0.326835   
     27. A(O   2,C   1,H  10)          104.9674         0.336868   
     28. A(C   0,C   1,H  10)          107.5384         0.325220   
     29. A(O   2,C   1,C   3)          110.2771         0.380889   
     30. A(C   0,C   1,C   3)          111.9978         0.367172   
     31. A(C   0,C   1,O   2)          112.5587         0.385473   
     32. A(C   3,C   1,H  10)          109.1752         0.321567   
     33. A(C   1,O   2,H  11)          109.6716         0.357877   
     34. A(H  12,C   3,H  13)          104.8805         0.288747   
     35. A(C   4,C   3,H  13)          107.5331         0.323989   
     36. A(C   1,C   3,H  13)          109.3538         0.323353   
     37. A(C   4,C   3,H  12)          111.6817         0.323063   
     38. A(C   1,C   3,H  12)          108.8910         0.322430   
     39. A(C   1,C   3,C   4)          114.0717         0.363613   
     40. A(H  14,C   4,H  15)          106.2525         0.289635   
     41. A(C   5,C   4,H  15)          110.2308         0.326904   
     42. A(C   3,C   4,H  15)          110.2960         0.323685   
     43. A(C   5,C   4,H  14)          105.0904         0.327635   
     44. A(C   3,C   4,H  14)          108.9703         0.324406   
     45. A(C   3,C   4,C   5)          115.4750         0.368135   
     46. A(N   6,C   5,H  17)          106.5577         0.320278   
     47. A(C   4,C   5,H  17)          111.4909         0.327902   
     48. A(N   6,C   5,H  16)          106.2174         0.320274   
     49. A(C   4,C   5,H  16)          112.0583         0.327897   
     50. A(H  16,C   5,H  17)          109.0580         0.290697   
     51. A(C   4,C   5,N   6)          111.1733         0.362934   
     52. A(H  19,N   6,H  20)          107.9843         0.299079   
     53. A(H  18,N   6,H  20)          107.5612         0.298942   
     54. A(C   5,N   6,H  20)          110.2464         0.324918   
     55. A(H  18,N   6,H  19)          108.0152         0.299146   
     56. A(C   5,N   6,H  19)          111.7840         0.325148   
     57. A(C   5,N   6,H  18)          111.0932         0.324993   
     58. D(O   2,C   1,C   0,H   9)    178.1582         0.012613   
     59. D(H  10,C   1,C   0,H   7)    -57.2557         0.012613   
     60. D(C   3,C   1,C   0,H   8)     62.3599         0.012613   
     61. D(H  10,C   1,C   0,H   8)   -177.6936         0.012613   
     62. D(C   3,C   1,C   0,H   9)    -56.9128         0.012613   
     63. D(C   3,C   1,C   0,H   7)   -177.2022         0.012613   
     64. D(O   2,C   1,C   0,H   8)    -62.5690         0.012613   
     65. D(H  10,C   1,C   0,H   9)     63.0337         0.012613   
     66. D(O   2,C   1,C   0,H   7)     57.8688         0.012613   
     67. D(H  11,O   2,C   1,H  10)    140.3485         0.020713   
     68. D(H  11,O   2,C   1,C   3)   -102.1852         0.020713   
     69. D(H  11,O   2,C   1,C   0)     23.6799         0.020713   
     70. D(C   4,C   3,C   1,C   0)   -164.9191         0.011063   
     71. D(C   4,C   3,C   1,O   2)    -38.7379         0.011063   
     72. D(H  13,C   3,C   1,O   2)     81.7015         0.011063   
     73. D(C   4,C   3,C   1,H  10)     76.0958         0.011063   
     74. D(H  12,C   3,C   1,H  10)    -49.3932         0.011063   
     75. D(H  12,C   3,C   1,O   2)   -164.2269         0.011063   
     76. D(H  12,C   3,C   1,C   0)     69.5919         0.011063   
     77. D(H  13,C   3,C   1,H  10)   -163.4648         0.011063   
     78. D(H  13,C   3,C   1,C   0)    -44.4797         0.011063   
     79. D(H  15,C   4,C   3,H  13)     64.6078         0.011315   
     80. D(H  15,C   4,C   3,H  12)    -49.9386         0.011315   
     81. D(H  15,C   4,C   3,C   1)   -173.9401         0.011315   
     82. D(H  14,C   4,C   3,H  13)    -51.6662         0.011315   
     83. D(H  14,C   4,C   3,H  12)   -166.2125         0.011315   
     84. D(H  14,C   4,C   3,C   1)     69.7859         0.011315   
     85. D(C   5,C   4,C   3,H  13)   -169.6172         0.011315   
     86. D(C   5,C   4,C   3,H  12)     75.8364         0.011315   
     87. D(C   5,C   4,C   3,C   1)    -48.1651         0.011315   
     88. D(N   6,C   5,C   4,C   3)    -60.0065         0.012693   
     89. D(H  17,C   5,C   4,H  14)    -61.3526         0.012693   
     90. D(H  17,C   5,C   4,C   3)     58.7411         0.012693   
     91. D(H  16,C   5,C   4,H  15)    -52.8906         0.012693   
     92. D(H  16,C   5,C   4,H  14)     61.2073         0.012693   
     93. D(H  16,C   5,C   4,C   3)   -178.6990         0.012693   
     94. D(N   6,C   5,C   4,H  15)     65.8019         0.012693   
     95. D(H  17,C   5,C   4,H  15)   -175.4505         0.012693   
     96. D(N   6,C   5,C   4,H  14)    179.8998         0.012693   
     97. D(H  20,N   6,C   5,H  17)    -63.0147         0.011880   
     98. D(H  20,N   6,C   5,C   4)     58.6556         0.011880   
     99. D(H  19,N   6,C   5,H  17)     57.1049         0.011880   
    100. D(H  19,N   6,C   5,H  16)    -59.0783         0.011880   
    101. D(H  19,N   6,C   5,C   4)    178.7752         0.011880   
    102. D(H  18,N   6,C   5,H  17)    177.8439         0.011880   
    103. D(H  20,N   6,C   5,H  16)   -179.1979         0.011880   
    104. D(H  18,N   6,C   5,H  16)     61.6607         0.011880   
    105. D(H  18,N   6,C   5,C   4)    -60.4858         0.011880   
    -----------------------------------------------------------------

Number of atoms                         .... 21
Number of degrees of freedom            .... 105

         *************************************************************
         *                GEOMETRY OPTIMIZATION CYCLE   1            *
         *************************************************************


           ************************************************************
           *        Program running with 8 parallel MPI-processes     *
           *              working on a common directory               *
           ************************************************************
           ************************************************************
           *              Shut down parallel processing               *
           ************************************************************


           ************************************************************
           *        Program running with 8 parallel MPI-processes     *
           *              working on a common directory               *
           ************************************************************
------------
SCF SETTINGS
------------
Hamiltonian:
 Density Functional     Method          .... DFT(GTOs)
 Exchange Functional    Exchange        .... PBE
   PBE kappa parameter  XKappa          ....  0.804000
 Correlation Functional Correlation     .... PBE
 LDA part of GGA corr.  LDAOpt          .... PW91-LDA
 Gradients option       PostSCFGGA      .... off
 Hybrid DFT is turned on
   Fraction HF Exchange ScalHFX         ....  0.250000
   Scaling of DF-GGA-X  ScalDFX         ....  0.750000
   Scaling of DF-GGA-C  ScalDFC         ....  1.000000
   Scaling of DF-LDA-C  ScalLDAC        ....  1.000000
   Perturbative correction              ....  0.000000
   NL short-range parameter             ....  6.900000


General Settings:
 Integral files         IntName         .... 5476_+
 Hartree-Fock type      HFTyp           .... RHF
 Total Charge           Charge          ....    1
 Multiplicity           Mult            ....    1
 Number of Electrons    NEL             ....   58
 Basis Dimension        Dim             ....  301
 Nuclear Repulsion      ENuc            ....    348.4511897473 Eh

Convergence Acceleration:
 DIIS                   CNVDIIS         .... on
   Start iteration      DIISMaxIt       ....    12
   Startup error        DIISStart       ....  0.200000
   # of expansion vecs  DIISMaxEq       ....     5
   Bias factor          DIISBfac        ....   1.050
   Max. coefficient     DIISMaxC        ....  10.000
 Newton-Raphson         CNVNR           .... off
 SOSCF                  CNVSOSCF        .... on
   Start iteration      SOSCFMaxIt      ....   150
   Startup grad/error   SOSCFStart      ....  0.003300
 Level Shifting         CNVShift        .... on
   Level shift para.    LevelShift      ....    0.2500
   Turn off err/grad.   ShiftErr        ....    0.0010
 Zerner damping         CNVZerner       .... off
 Static damping         CNVDamp         .... on
   Fraction old density DampFac         ....    0.7000
   Max. Damping (<1)    DampMax         ....    0.9800
   Min. Damping (>=0)   DampMin         ....    0.0000
   Turn off err/grad.   DampErr         ....    0.1000
 Fernandez-Rico         CNVRico         .... off

SCF Procedure:
 Maximum # iterations   MaxIter         ....   125
 SCF integral mode      SCFMode         .... Direct
   Integral package                     .... LIBINT
 Reset frequeny         DirectResetFreq ....    20
 Integral Threshold     Thresh          ....  2.500e-11 Eh
 Primitive CutOff       TCut            ....  2.500e-12 Eh

Convergence Tolerance:
 Convergence Check Mode ConvCheckMode   .... Total+1el-Energy
 Energy Change          TolE            ....  1.000e-08 Eh
 1-El. energy change                    ....  1.000e-05 Eh
 Orbital Gradient       TolG            ....  1.000e-05
 Orbital Rotation angle TolX            ....  1.000e-05
 DIIS Error             TolErr          ....  5.000e-07


Diagonalization of the overlap matrix:
Smallest eigenvalue                        ... 1.091e-04
Time for diagonalization                   ...    0.669 sec
Threshold for overlap eigenvalues          ... 1.000e-08
Number of eigenvalues below threshold      ... 0
Time for construction of square roots      ...    0.035 sec
Total time needed                          ...    0.704 sec

-------------------
DFT GRID GENERATION
-------------------

General Integration Accuracy     IntAcc      ...  4.340
Radial Grid Type                 RadialGrid  ... Gauss-Chebyshev
Angular Grid (max. acc.)         AngularGrid ... Lebedev-194
Angular grid pruning method      GridPruning ... 3 (G Style)
Weight generation scheme         WeightScheme... Becke
Basis function cutoff            BFCut       ...    1.0000e-11
Integration weight cutoff        WCut        ...    1.0000e-14
Grids for H and He will be reduced by one unit

# of grid points (after initial pruning)     ...  44482 (   0.0 sec)
# of grid points (after weights+screening)   ...  40354 (   0.3 sec)
nearest neighbour list constructed           ...    0.0 sec
Grid point re-assignment to atoms done       ...    0.0 sec
Grid point division into batches done        ...    0.1 sec
Reduced shell lists constructed in    0.1 sec

Total number of grid points                  ...    40354
Total number of batches                      ...      644
Average number of points per batch           ...       62
Average number of grid points per atom       ...     1922
Average number of shells per batch           ...   100.60 (75.64%)
Average number of basis functions per batch  ...   234.09 (77.77%)
Average number of large shells per batch     ...    79.84 (79.37%)
Average number of large basis fcns per batch ...   184.01 (78.61%)
Maximum spatial batch extension              ...  13.43, 11.52, 12.82 au
Average spatial batch extension              ...   0.20,  0.19,  0.19 au

Time for grid setup =    1.266 sec

Loading Hartree-Fock densities                     ... done
Calculating cut-offs                               ... done
Setting up the integral package                    ... done
Initializing the effective Hamiltonian             ... done
Starting the Coulomb interaction                   ... done (   0.0 sec)
Reading the grid                                   ... done
Mapping shells                                     ... done
Starting the XC term evaluation                    ... done (   0.8 sec)
  promolecular density results
     # of electrons  =     58.992732903
     EX              =    -44.464831653
     EC              =     -1.943173501
     EX+EC           =    -46.408005154
Transforming the Hamiltonian                       ... done (   0.0 sec)
Diagonalizing the Hamiltonian                      ... done (   0.9 sec)
Back transforming the eigenvectors                 ... done (   0.0 sec)
Now organizing SCF variables                       ... done
--------------
SCF ITERATIONS
--------------
ITER       Energy         Delta-E        Max-DP      RMS-DP      [F,P]     Damp
               ***  Starting incremental Fock matrix formation  ***
  0   -328.2196363053   0.000000000000 0.07362234  0.00123987  0.2410098 0.7000
  1   -328.3181339335  -0.098497628234 0.06686632  0.00098116  0.1045970 0.7000
                               ***Turning on DIIS***
  2   -328.3594789110  -0.041344977540 0.09738598  0.00158499  0.0378443 0.0000
  3   -328.4218113856  -0.062332474552 0.05882549  0.00077666  0.0558341 0.0000
  4   -328.4363679720  -0.014556586425 0.01792548  0.00020222  0.0092747 0.0000
  5   -328.4368655224  -0.000497550363 0.00662709  0.00009216  0.0065679 0.0000
                      *** Initiating the SOSCF procedure ***
                           *** Shutting down DIIS ***
                      *** Re-Reading the Fockian *** 
                      *** Removing any level shift *** 
ITER      Energy       Delta-E        Grad      Rot      Max-DP    RMS-DP
  6   -328.43692413  -0.0000586050  0.000135  0.000135  0.001845  0.000031
               *** Restarting incremental Fock matrix formation ***
  7   -328.43692798  -0.0000038550  0.000074  0.000293  0.000911  0.000017
  8   -328.43692828  -0.0000002997  0.000049  0.000101  0.000347  0.000006
  9   -328.43692844  -0.0000001536  0.000011  0.000052  0.000227  0.000004
 10   -328.43692845  -0.0000000123  0.000005  0.000005  0.000028  0.000000
 11   -328.43692845  -0.0000000009  0.000003  0.000008  0.000028  0.000001
                  ***Gradient check signals convergence***
              ***Rediagonalizing the Fockian in SOSCF/NRSCF***

               *****************************************************
               *                     SUCCESS                       *
               *           SCF CONVERGED AFTER  12 CYCLES          *
               *****************************************************

Setting up the final grid:

General Integration Accuracy     IntAcc      ...  5.010
Radial Grid Type                 RadialGrid  ... Gauss-Chebyshev
Angular Grid (max. acc.)         AngularGrid ... Lebedev-434
Angular grid pruning method      GridPruning ... 3 (G Style)
Weight generation scheme         WeightScheme... Becke
Basis function cutoff            BFCut       ...    1.0000e-11
Integration weight cutoff        WCut        ...    1.0000e-14
Grids for H and He will be reduced by one unit

# of grid points (after initial pruning)     ... 168610 (   0.0 sec)
# of grid points (after weights+screening)   ... 150764 (   6.0 sec)
nearest neighbour list constructed           ...    0.0 sec
Grid point re-assignment to atoms done       ...    0.0 sec
Grid point division into batches done        ...    0.9 sec
Reduced shell lists constructed in    1.1 sec

Total number of grid points                  ...   150764
Total number of batches                      ...     2367
Average number of points per batch           ...       63
Average number of grid points per atom       ...     7179
Average number of shells per batch           ...    98.54 (74.09%)
Average number of basis functions per batch  ...   229.11 (76.12%)
Average number of large shells per batch     ...    77.10 (78.24%)
Average number of large basis fcns per batch ...   177.27 (77.37%)
Maximum spatial batch extension              ...  10.19, 12.20, 10.73 au
Average spatial batch extension              ...   0.12,  0.12,  0.12 au

Final grid set up in    9.1 sec
Final integration                            ... done (   1.5 sec)
Change in XC energy                          ...     0.000371948
Integrated number of electrons               ...    58.000025902
Previous integrated no of electrons          ...    57.999942296
Total Energy       :         -328.43655650 Eh           -8937.21306 eV
  Last Energy change         ...   -1.6378e-09  Tolerance :   1.0000e-08
  Last MAX-Density change    ...    5.6194e-06  Tolerance :   1.0000e-07
             **** THE GBW FILE WAS UPDATED (5476_+.gbw) ****
             **** DENSITY FILE WAS UPDATED (5476_+.scfp.tmp) ****
             **** ENERGY FILE WAS UPDATED (5476_+.en.tmp) ****
Total SCF time: 0 days 0 hours 2 min 16 sec 
           ************************************************************
           *              Shut down parallel processing               *
           ************************************************************

-------------------------   --------------------
FINAL SINGLE POINT ENERGY      -328.436556503042
-------------------------   --------------------



           ************************************************************
           *        Program running with 8 parallel MPI-processes     *
           *              working on a common directory               *
           ************************************************************
------------------------------------------------------------------------------
                         ORCA SCF GRADIENT CALCULATION
------------------------------------------------------------------------------

Gradient of the Kohn-Sham DFT energy:
Kohn-Sham wavefunction type      ... RKS
Hartree-Fock exchange scaling    ...    0.250
Number of operators              ...    1
Number of atoms                  ...   21
Basis set dimensions             ...  301
Integral neglect threshold       ... 2.5e-11
Integral primitive cutoff        ... 2.5e-12

Nuclear repulsion gradient       ... done
One Electron Gradient            ... done
Pre-screening matrix             ... done
Starting the two electron gradient:
Two electron gradient done
Exchange-correlation gradient    ... done

------------------
CARTESIAN GRADIENT
------------------

   1   C   :    0.000028403    0.000047349   -0.000239968
   2   C   :    0.000019590   -0.000189153   -0.000093547
   3   O   :    0.000145027    0.000034073    0.000094611
   4   C   :   -0.000118470    0.000054546   -0.000038832
   5   C   :   -0.000102591    0.000075218    0.000138855
   6   C   :   -0.000035535    0.000106242   -0.000011543
   7   N   :    0.000138036   -0.000098014   -0.000038984
   8   H   :    0.000016336    0.000101224    0.000079644
   9   H   :   -0.000116809   -0.000147215    0.000045882
  10   H   :    0.000038028   -0.000000866    0.000048901
  11   H   :    0.000010086    0.000115888    0.000010771
  12   H   :   -0.000017678   -0.000091939   -0.000042329
  13   H   :    0.000041604   -0.000006704    0.000035056
  14   H   :    0.000035070    0.000107068    0.000054499
  15   H   :    0.000030015   -0.000033141   -0.000032487
  16   H   :    0.000025026   -0.000045794   -0.000028778
  17   H   :    0.000095325   -0.000204506   -0.000093850
  18   H   :   -0.000047085    0.000062371    0.000167436
  19   H   :    0.000012320   -0.000039275   -0.000089214
  20   H   :   -0.000040034   -0.000000610    0.000030992
  21   H   :   -0.000156664    0.000153234    0.000002887

Norm of the cartesian gradient     ...    0.000703734
RMS gradient                       ...    0.000088662
MAX gradient                       ...    0.000239968

-------
TIMINGS
-------

Total SCF gradient time            ...       58.221 sec

One electron gradient       ....       0.310 sec  (  0.5%)
Prescreening matrices       ....       0.530 sec  (  0.9%)
Two electron gradient       ....      25.727 sec  ( 44.2%)
XC gradient                 ....       7.396 sec  ( 12.7%)
           ************************************************************
           *              Shut down parallel processing               *
           ************************************************************
------------------------------------------------------------------------------
                         ORCA GEOMETRY RELAXATION STEP
------------------------------------------------------------------------------

Reading the OPT-File                    .... done
Getting information on internals        .... done
Copying old internal coords+grads       .... done
Making the new internal coordinates     .... (new redundants).... done
Validating the new internal coordinates .... (new redundants).... done
Calculating the B-matrix                .... done
Calculating the G,G- and P matrices     .... done
Transforming gradient to internals      .... done
Projecting the internal gradient        .... done
Number of atoms                         ....  21
Number of internal coordinates          .... 105
Current Energy                          ....  -328.436556503 Eh
Current gradient norm                   ....     0.000703734 Eh/bohr
Maximum allowed component of the step   ....  0.300
Current trust radius                    ....  0.300
Evaluating the initial hessian          ....  (Almloef) done
Projecting the Hessian                  .... done
Forming the augmented Hessian           .... done
Diagonalizing the augmented Hessian     .... done
Last element of RFO vector              ....  0.999912766
Lowest eigenvalues of augmented Hessian:
 -0.000003604  0.011063677  0.011315087  0.011880727  0.012612564
Length of the computed step             ....  0.013209486
The final length of the internal step   ....  0.013209486
Converting the step to cartesian space:
 Initial RMS(Int)=    0.0012891138
Transforming coordinates:
 Iter   0:  RMS(Cart)=    0.0031102310 RMS(Int)=    0.0012890736
 Iter   1:  RMS(Cart)=    0.0000042679 RMS(Int)=    0.0000025760
 Iter   2:  RMS(Cart)=    0.0000000113 RMS(Int)=    0.0000000072
done
Storing new coordinates                 .... done

                                .--------------------.
          ----------------------|Geometry convergence|---------------------
          Item                value                 Tolerance   Converged
          -----------------------------------------------------------------
          RMS gradient        0.00006663            0.00003000      NO
          MAX gradient        0.00023566            0.00010000      NO
          RMS step            0.00128911            0.00060000      NO
          MAX step            0.00370473            0.00100000      NO
          ....................................................
          Max(Bonds)      0.0003      Max(Angles)    0.04
          Max(Dihed)        0.21      Max(Improp)    0.00
          -----------------------------------------------------------------

The optimization has not yet converged - more geometry cycles are needed


    ---------------------------------------------------------------------------
                         Redundant Internal Coordinates
                            (Angstroem and degrees)

        Definition                    Value    dE/dq     Step     New-Value
    ----------------------------------------------------------------------------
     1. B(C   1,C   0)                1.5123  0.000008 -0.0000    1.5123   
     2. B(O   2,C   1)                1.4145  0.000117 -0.0001    1.4144   
     3. B(C   3,C   1)                1.5311 -0.000121  0.0002    1.5312   
     4. B(C   4,C   3)                1.5278 -0.000029  0.0000    1.5278   
     5. B(C   5,C   4)                1.5114 -0.000032  0.0000    1.5115   
     6. B(N   6,C   5)                1.5105  0.000064 -0.0001    1.5104   
     7. B(H   7,C   0)                1.0913  0.000125 -0.0002    1.0911   
     8. B(H   8,C   0)                1.0949  0.000184 -0.0003    1.0946   
     9. B(H   9,C   0)                1.0919 -0.000048  0.0001    1.0920   
    10. B(H  10,C   1)                1.1031  0.000072 -0.0001    1.1030   
    11. B(H  11,O   2)                0.9611 -0.000010  0.0000    0.9612   
    12. B(H  12,C   3)                1.0986 -0.000038  0.0001    1.0987   
    13. B(H  13,C   3)                1.0939 -0.000062  0.0001    1.0940   
    14. B(H  14,C   4)                1.0918 -0.000004  0.0000    1.0918   
    15. B(H  15,C   4)                1.0954  0.000039 -0.0001    1.0954   
    16. B(H  16,C   5)                1.0904  0.000236 -0.0003    1.0901   
    17. B(H  17,C   5)                1.0904  0.000154 -0.0002    1.0902   
    18. B(H  18,N   6)                1.0220  0.000089 -0.0001    1.0219   
    19. B(H  19,N   6)                1.0213 -0.000040  0.0001    1.0213   
    20. B(H  20,N   6)                1.0224  0.000210 -0.0003    1.0222   
    21. A(C   1,C   0,H   9)          111.30  0.000005    0.00    111.30   
    22. A(C   1,C   0,H   7)          110.73  0.000057   -0.01    110.72   
    23. A(H   7,C   0,H   9)          108.11 -0.000034    0.01    108.12   
    24. A(H   8,C   0,H   9)          107.52  0.000032   -0.00    107.51   
    25. A(H   7,C   0,H   8)          108.74  0.000021   -0.01    108.74   
    26. A(C   1,C   0,H   8)          110.33 -0.000080    0.01    110.34   
    27. A(O   2,C   1,H  10)          104.97 -0.000053   -0.00    104.97   
    28. A(C   0,C   1,H  10)          107.54 -0.000006    0.01    107.54   
    29. A(O   2,C   1,C   3)          110.28  0.000018   -0.00    110.28   
    30. A(C   0,C   1,C   3)          112.00 -0.000211    0.04    112.04   
    31. A(C   0,C   1,O   2)          112.56  0.000140   -0.02    112.54   
    32. A(C   3,C   1,H  10)          109.18  0.000126   -0.03    109.14   
    33. A(C   1,O   2,H  11)          109.67  0.000021   -0.00    109.67   
    34. A(H  12,C   3,H  13)          104.88 -0.000000   -0.01    104.87   
    35. A(C   4,C   3,H  13)          107.53  0.000064   -0.01    107.52   
    36. A(C   1,C   3,H  13)          109.35 -0.000045    0.02    109.38   
    37. A(C   4,C   3,H  12)          111.68  0.000050   -0.02    111.66   
    38. A(C   1,C   3,H  12)          108.89  0.000022   -0.01    108.89   
    39. A(C   1,C   3,C   4)          114.07 -0.000085    0.02    114.09   
    40. A(H  14,C   4,H  15)          106.25 -0.000034    0.00    106.26   
    41. A(C   5,C   4,H  15)          110.23  0.000022   -0.00    110.23   
    42. A(C   3,C   4,H  15)          110.30  0.000081   -0.02    110.28   
    43. A(C   5,C   4,H  14)          105.09  0.000014    0.01    105.10   
    44. A(C   3,C   4,H  14)          108.97  0.000053   -0.01    108.96   
    45. A(C   3,C   4,C   5)          115.47 -0.000133    0.02    115.50   
    46. A(N   6,C   5,H  17)          106.56  0.000084   -0.02    106.54   
    47. A(C   4,C   5,H  17)          111.49 -0.000090    0.03    111.52   
    48. A(N   6,C   5,H  16)          106.22 -0.000016    0.00    106.22   
    49. A(C   4,C   5,H  16)          112.06  0.000032   -0.00    112.05   
    50. A(H  16,C   5,H  17)          109.06  0.000032   -0.02    109.04   
    51. A(C   4,C   5,N   6)          111.17 -0.000036    0.01    111.18   
    52. A(H  19,N   6,H  20)          107.98  0.000018   -0.00    107.98   
    53. A(H  18,N   6,H  20)          107.56 -0.000008    0.00    107.56   
    54. A(C   5,N   6,H  20)          110.25  0.000001   -0.00    110.25   
    55. A(H  18,N   6,H  19)          108.02  0.000002    0.00    108.02   
    56. A(C   5,N   6,H  19)          111.78 -0.000028    0.01    111.79   
    57. A(C   5,N   6,H  18)          111.09  0.000015   -0.00    111.09   
    58. D(O   2,C   1,C   0,H   9)    178.16  0.000009    0.02    178.18   
    59. D(H  10,C   1,C   0,H   7)    -57.26  0.000003    0.03    -57.23   
    60. D(C   3,C   1,C   0,H   8)     62.36 -0.000033    0.04     62.40   
    61. D(H  10,C   1,C   0,H   8)   -177.69 -0.000008    0.04   -177.66   
    62. D(C   3,C   1,C   0,H   9)    -56.91 -0.000024    0.04    -56.87   
    63. D(C   3,C   1,C   0,H   7)   -177.20 -0.000022    0.04   -177.16   
    64. D(O   2,C   1,C   0,H   8)    -62.57  0.000000    0.03    -62.54   
    65. D(H  10,C   1,C   0,H   9)     63.03  0.000001    0.03     63.07   
    66. D(O   2,C   1,C   0,H   7)     57.87  0.000011    0.02     57.89   
    67. D(H  11,O   2,C   1,H  10)    140.35  0.000026   -0.15    140.20   
    68. D(H  11,O   2,C   1,C   3)   -102.19  0.000153   -0.18   -102.37   
    69. D(H  11,O   2,C   1,C   0)     23.68 -0.000006   -0.14     23.54   
    70. D(C   4,C   3,C   1,C   0)   -164.92  0.000014   -0.20   -165.12   
    71. D(C   4,C   3,C   1,O   2)    -38.74  0.000053   -0.19    -38.93   
    72. D(H  13,C   3,C   1,O   2)     81.70  0.000046   -0.18     81.53   
    73. D(C   4,C   3,C   1,H  10)     76.10  0.000071   -0.21     75.88   
    74. D(H  12,C   3,C   1,H  10)    -49.39  0.000050   -0.20    -49.59   
    75. D(H  12,C   3,C   1,O   2)   -164.23  0.000033   -0.18   -164.40   
    76. D(H  12,C   3,C   1,C   0)     69.59 -0.000006   -0.18     69.41   
    77. D(H  13,C   3,C   1,H  10)   -163.46  0.000063   -0.19   -163.66   
    78. D(H  13,C   3,C   1,C   0)    -44.48  0.000006   -0.18    -44.66   
    79. D(H  15,C   4,C   3,H  13)     64.61  0.000062   -0.05     64.56   
    80. D(H  15,C   4,C   3,H  12)    -49.94 -0.000001   -0.02    -49.96   
    81. D(H  15,C   4,C   3,C   1)   -173.94 -0.000004   -0.01   -173.95   
    82. D(H  14,C   4,C   3,H  13)    -51.67  0.000027   -0.04    -51.70   
    83. D(H  14,C   4,C   3,H  12)   -166.21 -0.000036   -0.01   -166.22   
    84. D(H  14,C   4,C   3,C   1)     69.79 -0.000040   -0.00     69.78   
    85. D(C   5,C   4,C   3,H  13)   -169.62  0.000056   -0.05   -169.67   
    86. D(C   5,C   4,C   3,H  12)     75.84 -0.000007   -0.03     75.81   
    87. D(C   5,C   4,C   3,C   1)    -48.17 -0.000011   -0.02    -48.18   
    88. D(N   6,C   5,C   4,C   3)    -60.01 -0.000035    0.06    -59.95   
    89. D(H  17,C   5,C   4,H  14)    -61.35 -0.000010    0.05    -61.30   
    90. D(H  17,C   5,C   4,C   3)     58.74 -0.000011    0.06     58.80   
    91. D(H  16,C   5,C   4,H  15)    -52.89  0.000011    0.04    -52.85   
    92. D(H  16,C   5,C   4,H  14)     61.21 -0.000011    0.05     61.25   
    93. D(H  16,C   5,C   4,C   3)   -178.70 -0.000012    0.05   -178.65   
    94. D(N   6,C   5,C   4,H  15)     65.80 -0.000011    0.04     65.85   
    95. D(H  17,C   5,C   4,H  15)   -175.45  0.000012    0.05   -175.40   
    96. D(N   6,C   5,C   4,H  14)    179.90 -0.000033    0.05    179.95   
    97. D(H  20,N   6,C   5,H  17)    -63.01  0.000024    0.09    -62.92   
    98. D(H  20,N   6,C   5,C   4)     58.66 -0.000053    0.12     58.78   
    99. D(H  19,N   6,C   5,H  17)     57.10  0.000029    0.09     57.20   
   100. D(H  19,N   6,C   5,H  16)    -59.08 -0.000039    0.12    -58.96   
   101. D(H  19,N   6,C   5,C   4)    178.78 -0.000048    0.12    178.89   
   102. D(H  18,N   6,C   5,H  17)    177.84  0.000022    0.09    177.94   
   103. D(H  20,N   6,C   5,H  16)   -179.20 -0.000045    0.12   -179.07   
   104. D(H  18,N   6,C   5,H  16)     61.66 -0.000046    0.12     61.78   
   105. D(H  18,N   6,C   5,C   4)    -60.49 -0.000054    0.12    -60.36   
    ----------------------------------------------------------------------------

         *************************************************************
         *                GEOMETRY OPTIMIZATION CYCLE   2            *
         *************************************************************
---------------------------------
CARTESIAN COORDINATES (ANGSTROEM)
---------------------------------
  C     -1.686960    1.649522    1.188664
  C     -0.561878    0.747432    0.733168
  O     -0.003601   -0.001367    1.795269
  C     -0.995889   -0.184017   -0.402037
  C     -0.036148   -1.345019   -0.657505
  C      1.424610   -0.970908   -0.761080
  N      1.660129    0.001289   -1.892728
  H     -1.341416    2.337258    1.962026
  H     -2.512794    1.054253    1.590971
  H     -2.081483    2.241005    0.359820
  H      0.258731    1.393001    0.377633
  H     -0.646036   -0.084173    2.505371
  H     -1.160139    0.413568   -1.309256
  H     -1.974889   -0.611644   -0.166464
  H     -0.092279   -2.042635    0.180424
  H     -0.347211   -1.906346   -1.545210
  H      2.055097   -1.836054   -0.966749
  H      1.777442   -0.481562    0.146972
  H      1.382879   -0.403633   -2.789116
  H      2.641943    0.274466   -1.959684
  H      1.105765    0.848506   -1.752350

----------------------------
CARTESIAN COORDINATES (A.U.)
----------------------------
  NO LB      ZA    FRAG    MASS        X           Y           Z
   0 C     6.0000    0    12.011         -3.187892989840884          3.117144304351374          2.246249934691325
   1 C     6.0000    0    12.011         -1.061794895556960          1.412441345708392          1.385487316320193
   2 O     8.0000    0    15.999         -0.006805119647284         -0.002583830010467          3.392567019266750
   3 C     6.0000    0    12.011         -1.881957972816664         -0.347742512040308         -0.759739164552683
   4 C     6.0000    0    12.011         -0.068310032544992         -2.541717606691452         -1.242503777222260
   5 C     6.0000    0    12.011          2.692122543860704         -1.834749705471107         -1.438232972971257
   6 N     7.0000    0    14.007          3.137188418047698          0.002435358085851         -3.576738477388077
   7 H     1.0000    0     1.008         -2.534908550876488          4.416777402098318          3.707692494717404
   8 H     1.0000    0     1.008         -4.748491546998159          1.992249912030588          3.006500337713673
   9 H     1.0000    0     1.008         -3.933432852356613          4.234885669191231          0.679961548199601
  10 H     1.0000    0     1.008          0.488930433241518          2.632391187225350          0.713622937602070
  11 H     1.0000    0     1.008         -1.220830354896822         -0.159064073311068          4.734465154784697
  12 H     1.0000    0     1.008         -2.192345251312544          0.781529900638410         -2.474135934975275
  13 H     1.0000    0     1.008         -3.732000219133289         -1.155840226634709         -0.314572207035809
  14 H     1.0000    0     1.008         -0.174382908404910         -3.860020470614595          0.340951310612759
  15 H     1.0000    0     1.008         -0.656133362220158         -3.602472720038985         -2.920024148186486
  16 H     1.0000    0     1.008          3.883570630330462         -3.469639662214014         -1.826890429210563
  17 H     1.0000    0     1.008          3.358877744049081         -0.910021202789791          0.277736271199791
  18 H     1.0000    0     1.008          2.613262906872966         -0.762755574511821         -5.270664892136097
  19 H     1.0000    0     1.008          4.992548585682834          0.518665746896901         -3.703265781999819
  20 H     1.0000    0     1.008          2.089592100965186          1.603444590698801         -3.311460704983165

--------------------------------
INTERNAL COORDINATES (ANGSTROEM)
--------------------------------
 C      0   0   0   0.000000     0.000     0.000
 C      1   0   0   1.512301     0.000     0.000
 O      2   1   0   1.414366   112.537     0.000
 C      2   1   3   1.531226   112.042   124.946
 C      4   2   1   1.527839   114.089   194.884
 C      5   4   2   1.511457   115.497   311.816
 N      6   5   4   1.510385   111.184   300.051
 H      1   2   3   1.091087   110.724    57.890
 H      1   2   3   1.094621   110.340   297.458
 H      1   2   3   1.092009   111.301   178.181
 H      2   1   3   1.102980   107.545   244.884
 H      3   2   1   0.961157   109.668    23.536
 H      4   2   1   1.098696   108.886    69.410
 H      4   2   1   1.093984   109.377   315.341
 H      5   4   2   1.091761   108.961    69.783
 H      5   4   2   1.095386   110.275   186.045
 H      6   5   4   1.090088   112.053   181.353
 H      6   5   4   1.090187   111.519    58.802
 H      7   6   5   1.021929   111.091   299.637
 H      7   6   5   1.021307   111.789   178.895
 H      7   6   5   1.022156   110.246    58.778

---------------------------
INTERNAL COORDINATES (A.U.)
---------------------------
 C      0   0   0   0.000000     0.000     0.000
 C      1   0   0   2.857834     0.000     0.000
 O      2   1   0   2.672764   112.537     0.000
 C      2   1   3   2.893598   112.042   124.946
 C      4   2   1   2.887197   114.089   194.884
 C      5   4   2   2.856239   115.497   311.816
 N      6   5   4   2.854214   111.184   300.051
 H      1   2   3   2.061856   110.724    57.890
 H      1   2   3   2.068535   110.340   297.458
 H      1   2   3   2.063598   111.301   178.181
 H      2   1   3   2.084329   107.545   244.884
 H      3   2   1   1.816324   109.668    23.536
 H      4   2   1   2.076235   108.886    69.410
 H      4   2   1   2.067330   109.377   315.341
 H      5   4   2   2.063130   108.961    69.783
 H      5   4   2   2.069979   110.275   186.045
 H      6   5   4   2.059968   112.053   181.353
 H      6   5   4   2.060154   111.519    58.802
 H      7   6   5   1.931166   111.091   299.637
 H      7   6   5   1.929991   111.789   178.895
 H      7   6   5   1.931595   110.246    58.778



           ************************************************************
           *        Program running with 8 parallel MPI-processes     *
           *              working on a common directory               *
           ************************************************************
           ************************************************************
           *              Shut down parallel processing               *
           ************************************************************


           ************************************************************
           *        Program running with 8 parallel MPI-processes     *
           *              working on a common directory               *
           ************************************************************

Diagonalization of the overlap matrix:
Smallest eigenvalue                        ... 1.092e-04
Time for diagonalization                   ...    0.849 sec
Threshold for overlap eigenvalues          ... 1.000e-08
Number of eigenvalues below threshold      ... 0
Time for construction of square roots      ...    0.045 sec
Total time needed                          ...    0.895 sec

-------------------
DFT GRID GENERATION
-------------------

General Integration Accuracy     IntAcc      ...  4.340
Radial Grid Type                 RadialGrid  ... Gauss-Chebyshev
Angular Grid (max. acc.)         AngularGrid ... Lebedev-194
Angular grid pruning method      GridPruning ... 3 (G Style)
Weight generation scheme         WeightScheme... Becke
Basis function cutoff            BFCut       ...    1.0000e-11
Integration weight cutoff        WCut        ...    1.0000e-14
Grids for H and He will be reduced by one unit

# of grid points (after initial pruning)     ...  44482 (   0.0 sec)
# of grid points (after weights+screening)   ...  40355 (   0.4 sec)
nearest neighbour list constructed           ...    0.0 sec
Grid point re-assignment to atoms done       ...    0.0 sec
Grid point division into batches done        ...    0.1 sec
Reduced shell lists constructed in    0.1 sec

Total number of grid points                  ...    40355
Total number of batches                      ...      643
Average number of points per batch           ...       62
Average number of grid points per atom       ...     1922
Average number of shells per batch           ...   100.89 (75.86%)
Average number of basis functions per batch  ...   234.89 (78.04%)
Average number of large shells per batch     ...    79.95 (79.25%)
Average number of large basis fcns per batch ...   184.46 (78.53%)
Maximum spatial batch extension              ...  13.39, 11.52, 12.82 au
Average spatial batch extension              ...   0.20,  0.19,  0.19 au

Time for grid setup =    1.433 sec

--------------
SCF ITERATIONS
--------------
ITER       Energy         Delta-E        Max-DP      RMS-DP      [F,P]     Damp
               ***  Starting incremental Fock matrix formation  ***
                      *** Initiating the SOSCF procedure ***
                      *** Re-Reading the Fockian *** 
                      *** Removing any level shift *** 
ITER      Energy       Delta-E        Grad      Rot      Max-DP    RMS-DP
  0   -328.43691779 -328.4369177921  0.000207  0.000207  0.000898  0.000017
               *** Restarting incremental Fock matrix formation ***
  1   -328.43692640  -0.0000086098  0.000069  0.000139  0.000331  0.000006
  2   -328.43692717  -0.0000007632  0.000020  0.000034  0.000082  0.000002
  3   -328.43692716   0.0000000068  0.000023  0.000016  0.000044  0.000001
  4   -328.43692720  -0.0000000424  0.000003  0.000004  0.000019  0.000000
  5   -328.43692720   0.0000000004  0.000003  0.000002  0.000011  0.000000
                  ***Gradient check signals convergence***
              ***Rediagonalizing the Fockian in SOSCF/NRSCF***

               *****************************************************
               *                     SUCCESS                       *
               *           SCF CONVERGED AFTER   6 CYCLES          *
               *****************************************************

Setting up the final grid:

General Integration Accuracy     IntAcc      ...  5.010
Radial Grid Type                 RadialGrid  ... Gauss-Chebyshev
Angular Grid (max. acc.)         AngularGrid ... Lebedev-434
Angular grid pruning method      GridPruning ... 3 (G Style)
Weight generation scheme         WeightScheme... Becke
Basis function cutoff            BFCut       ...    1.0000e-11
Integration weight cutoff        WCut        ...    1.0000e-14
Grids for H and He will be reduced by one unit

# of grid points (after initial pruning)     ... 168610 (   0.0 sec)
# of grid points (after weights+screening)   ... 150771 (   4.9 sec)
nearest neighbour list constructed           ...    0.0 sec
Grid point re-assignment to atoms done       ...    0.0 sec
Grid point division into batches done        ...    1.4 sec
Reduced shell lists constructed in    2.0 sec

Total number of grid points                  ...   150771
Total number of batches                      ...     2366
Average number of points per batch           ...       63
Average number of grid points per atom       ...     7180
Average number of shells per batch           ...    98.55 (74.10%)
Average number of basis functions per batch  ...   229.17 (76.14%)
Average number of large shells per batch     ...    77.11 (78.25%)
Average number of large basis fcns per batch ...   177.23 (77.34%)
Maximum spatial batch extension              ...  10.19, 12.19, 10.73 au
Average spatial batch extension              ...   0.12,  0.12,  0.12 au

Final grid set up in    7.9 sec
Final integration                            ... done (   1.7 sec)
Change in XC energy                          ...     0.000368205
Integrated number of electrons               ...    58.000025961
Previous integrated no of electrons          ...    57.999920190
Total Energy       :         -328.43655900 Eh           -8937.21313 eV
  Last Energy change         ...   -4.5014e-10  Tolerance :   1.0000e-08
  Last MAX-Density change    ...    2.0145e-06  Tolerance :   1.0000e-07
             **** THE GBW FILE WAS UPDATED (5476_+.gbw) ****
             **** DENSITY FILE WAS UPDATED (5476_+.scfp.tmp) ****
             **** ENERGY FILE WAS UPDATED (5476_+.en.tmp) ****
Total SCF time: 0 days 0 hours 1 min 19 sec 
           ************************************************************
           *              Shut down parallel processing               *
           ************************************************************

-------------------------   --------------------
FINAL SINGLE POINT ENERGY      -328.436558995819
-------------------------   --------------------



           ************************************************************
           *        Program running with 8 parallel MPI-processes     *
           *              working on a common directory               *
           ************************************************************
------------------------------------------------------------------------------
                         ORCA SCF GRADIENT CALCULATION
------------------------------------------------------------------------------

Gradient of the Kohn-Sham DFT energy:
Kohn-Sham wavefunction type      ... RKS
Hartree-Fock exchange scaling    ...    0.250
Number of operators              ...    1
Number of atoms                  ...   21
Basis set dimensions             ...  301
Integral neglect threshold       ... 2.5e-11
Integral primitive cutoff        ... 2.5e-12

Nuclear repulsion gradient       ... done
One Electron Gradient            ... done
Pre-screening matrix             ... done
Starting the two electron gradient:
Two electron gradient done
Exchange-correlation gradient    ... done

------------------
CARTESIAN GRADIENT
------------------

   1   C   :    0.000001915    0.000019509    0.000016217
   2   C   :    0.000056280   -0.000063474   -0.000051717
   3   O   :    0.000100860    0.000123666    0.000096485
   4   C   :   -0.000058028   -0.000033286   -0.000063627
   5   C   :   -0.000082343    0.000021690    0.000054416
   6   C   :    0.000113938    0.000019106    0.000011602
   7   N   :   -0.000015237   -0.000005107   -0.000042682
   8   H   :   -0.000025743    0.000015800    0.000004775
   9   H   :    0.000005335   -0.000029758   -0.000003276
  10   H   :    0.000021986    0.000004880    0.000004202
  11   H   :   -0.000038411    0.000019665    0.000040008
  12   H   :   -0.000037841   -0.000075712   -0.000023716
  13   H   :    0.000024525   -0.000013732    0.000003993
  14   H   :   -0.000018925    0.000063789    0.000022104
  15   H   :    0.000015705   -0.000024353   -0.000036504
  16   H   :    0.000016369   -0.000016926   -0.000002366
  17   H   :   -0.000023179   -0.000011819   -0.000041567
  18   H   :   -0.000053119   -0.000007961    0.000010625
  19   H   :    0.000029711    0.000001264   -0.000000092
  20   H   :   -0.000007332    0.000018732    0.000022948
  21   H   :   -0.000026467   -0.000025973   -0.000021827

Norm of the cartesian gradient     ...    0.000332699
RMS gradient                       ...    0.000041916
MAX gradient                       ...    0.000123666

-------
TIMINGS
-------

Total SCF gradient time            ...       58.651 sec

One electron gradient       ....       0.216 sec  (  0.4%)
Prescreening matrices       ....       0.939 sec  (  1.6%)
Two electron gradient       ....      26.007 sec  ( 44.3%)
XC gradient                 ....       3.566 sec  (  6.1%)
           ************************************************************
           *              Shut down parallel processing               *
           ************************************************************
------------------------------------------------------------------------------
                         ORCA GEOMETRY RELAXATION STEP
------------------------------------------------------------------------------

Reading the OPT-File                    .... done
Getting information on internals        .... done
Copying old internal coords+grads       .... done
Making the new internal coordinates     .... (new redundants).... done
Validating the new internal coordinates .... (new redundants).... done
Calculating the B-matrix                .... done
Calculating the G,G- and P matrices     .... done
Transforming gradient to internals      .... done
Projecting the internal gradient        .... done
Number of atoms                         ....  21
Number of internal coordinates          .... 105
Current Energy                          ....  -328.436558996 Eh
Current gradient norm                   ....     0.000332699 Eh/bohr
Maximum allowed component of the step   ....  0.300
Current trust radius                    ....  0.300
Updating the Hessian (BFGS)             .... done
Forming the augmented Hessian           .... done
Diagonalizing the augmented Hessian     .... done
Last element of RFO vector              ....  0.999772970
Lowest eigenvalues of augmented Hessian:
 -0.000003125  0.005829896  0.011336575  0.011899834  0.012558006
Length of the computed step             ....  0.021312316
The final length of the internal step   ....  0.021312316
Converting the step to cartesian space:
 Initial RMS(Int)=    0.0020798691
Transforming coordinates:
 Iter   0:  RMS(Cart)=    0.0042318203 RMS(Int)=    0.6129983109
 Iter   1:  RMS(Cart)=    0.0000091392 RMS(Int)=    0.0000064597
 Iter   2:  RMS(Cart)=    0.0000000517 RMS(Int)=    0.0000000412
done
Storing new coordinates                 .... done

                                .--------------------.
          ----------------------|Geometry convergence|---------------------
          Item                value                 Tolerance   Converged
          -----------------------------------------------------------------
          Energy change      -0.00000249            0.00000100      NO
          RMS gradient        0.00003056            0.00003000      NO
          MAX gradient        0.00011133            0.00010000      NO
          RMS step            0.00207987            0.00060000      NO
          MAX step            0.00638926            0.00100000      NO
          ....................................................
          Max(Bonds)      0.0002      Max(Angles)    0.06
          Max(Dihed)        0.37      Max(Improp)    0.00
          -----------------------------------------------------------------

The optimization has not yet converged - more geometry cycles are needed


    ---------------------------------------------------------------------------
                         Redundant Internal Coordinates
                            (Angstroem and degrees)

        Definition                    Value    dE/dq     Step     New-Value
    ----------------------------------------------------------------------------
     1. B(C   1,C   0)                1.5123  0.000013 -0.0000    1.5123   
     2. B(O   2,C   1)                1.4144  0.000050 -0.0002    1.4142   
     3. B(C   3,C   1)                1.5312  0.000089 -0.0002    1.5311   
     4. B(C   4,C   3)                1.5278  0.000022 -0.0000    1.5278   
     5. B(C   5,C   4)                1.5115  0.000022 -0.0000    1.5114   
     6. B(N   6,C   5)                1.5104  0.000012 -0.0001    1.5103   
     7. B(H   7,C   0)                1.0911  0.000004 -0.0001    1.0910   
     8. B(H   8,C   0)                1.0946  0.000009 -0.0002    1.0945   
     9. B(H   9,C   0)                1.0920 -0.000005  0.0000    1.0921   
    10. B(H  10,C   1)                1.1030 -0.000030  0.0000    1.1030   
    11. B(H  11,O   2)                0.9612  0.000016 -0.0000    0.9611   
    12. B(H  12,C   3)                1.0987 -0.000014  0.0001    1.0988   
    13. B(H  13,C   3)                1.0940 -0.000004  0.0001    1.0940   
    14. B(H  14,C   4)                1.0918 -0.000012  0.0000    1.0918   
    15. B(H  15,C   4)                1.0954  0.000005 -0.0000    1.0953   
    16. B(H  16,C   5)                1.0901  0.000004 -0.0002    1.0899   
    17. B(H  17,C   5)                1.0902 -0.000011 -0.0001    1.0901   
    18. B(H  18,N   6)                1.0219 -0.000010 -0.0000    1.0219   
    19. B(H  19,N   6)                1.0213 -0.000003  0.0000    1.0213   
    20. B(H  20,N   6)                1.0222 -0.000012 -0.0001    1.0221   
    21. A(C   1,C   0,H   9)          111.30 -0.000021    0.01    111.31   
    22. A(C   1,C   0,H   7)          110.72  0.000055   -0.02    110.70   
    23. A(H   7,C   0,H   9)          108.12 -0.000018    0.01    108.13   
    24. A(H   8,C   0,H   9)          107.51  0.000025   -0.01    107.51   
    25. A(H   7,C   0,H   8)          108.74 -0.000001   -0.01    108.73   
    26. A(C   1,C   0,H   8)          110.34 -0.000041    0.02    110.36   
    27. A(O   2,C   1,H  10)          104.97 -0.000037    0.01    104.98   
    28. A(C   0,C   1,H  10)          107.54  0.000005    0.02    107.56   
    29. A(O   2,C   1,C   3)          110.28  0.000089   -0.04    110.24   
    30. A(C   0,C   1,C   3)          112.04 -0.000111    0.06    112.10   
    31. A(C   0,C   1,O   2)          112.54  0.000003   -0.00    112.53   
    32. A(C   3,C   1,H  10)          109.14  0.000057   -0.05    109.10   
    33. A(C   1,O   2,H  11)          109.67 -0.000001   -0.00    109.67   
    34. A(H  12,C   3,H  13)          104.87  0.000010   -0.00    104.87   
    35. A(C   4,C   3,H  13)          107.52  0.000022   -0.02    107.51   
    36. A(C   1,C   3,H  13)          109.38 -0.000064    0.04    109.42   
    37. A(C   4,C   3,H  12)          111.66 -0.000031   -0.00    111.66   
    38. A(C   1,C   3,H  12)          108.89 -0.000009   -0.00    108.88   
    39. A(C   1,C   3,C   4)          114.09  0.000066   -0.01    114.08   
    40. A(H  14,C   4,H  15)          106.26 -0.000020    0.01    106.27   
    41. A(C   5,C   4,H  15)          110.23 -0.000001    0.00    110.23   
    42. A(C   3,C   4,H  15)          110.28  0.000036   -0.02    110.25   
    43. A(C   5,C   4,H  14)          105.10  0.000007    0.00    105.10   
    44. A(C   3,C   4,H  14)          108.96  0.000027   -0.02    108.94   
    45. A(C   3,C   4,C   5)          115.50 -0.000048    0.02    115.52   
    46. A(N   6,C   5,H  17)          106.54  0.000044   -0.03    106.51   
    47. A(C   4,C   5,H  17)          111.52 -0.000060    0.05    111.56   
    48. A(N   6,C   5,H  16)          106.22 -0.000025    0.01    106.23   
    49. A(C   4,C   5,H  16)          112.05  0.000020   -0.01    112.04   
    50. A(H  16,C   5,H  17)          109.04  0.000023   -0.03    109.01   
    51. A(C   4,C   5,N   6)          111.18 -0.000000    0.01    111.19   
    52. A(H  19,N   6,H  20)          107.98  0.000008   -0.01    107.97   
    53. A(H  18,N   6,H  20)          107.56 -0.000006    0.00    107.57   
    54. A(C   5,N   6,H  20)          110.25 -0.000001   -0.00    110.25   
    55. A(H  18,N   6,H  19)          108.02  0.000001    0.00    108.02   
    56. A(C   5,N   6,H  19)          111.79 -0.000013    0.01    111.80   
    57. A(C   5,N   6,H  18)          111.09  0.000011   -0.00    111.09   
    58. D(O   2,C   1,C   0,H   9)    178.18 -0.000026    0.06    178.24   
    59. D(H  10,C   1,C   0,H   7)    -57.23  0.000014    0.04    -57.19   
    60. D(C   3,C   1,C   0,H   8)     62.40 -0.000002    0.06     62.47   
    61. D(H  10,C   1,C   0,H   8)   -177.66  0.000005    0.05   -177.61   
    62. D(C   3,C   1,C   0,H   9)    -56.87  0.000008    0.05    -56.82   
    63. D(C   3,C   1,C   0,H   7)   -177.16  0.000007    0.05   -177.11   
    64. D(O   2,C   1,C   0,H   8)    -62.54 -0.000035    0.07    -62.47   
    65. D(H  10,C   1,C   0,H   9)     63.07  0.000014    0.04     63.11   
    66. D(O   2,C   1,C   0,H   7)     57.89 -0.000027    0.06     57.95   
    67. D(H  11,O   2,C   1,H  10)    140.20  0.000014   -0.29    139.91   
    68. D(H  11,O   2,C   1,C   3)   -102.37  0.000104   -0.37   -102.74   
    69. D(H  11,O   2,C   1,C   0)     23.54  0.000029   -0.32     23.22   
    70. D(C   4,C   3,C   1,C   0)   -165.12  0.000003   -0.25   -165.36   
    71. D(C   4,C   3,C   1,O   2)    -38.93 -0.000008   -0.23    -39.17   
    72. D(H  13,C   3,C   1,O   2)     81.53  0.000018   -0.24     81.29   
    73. D(C   4,C   3,C   1,H  10)     75.88  0.000029   -0.27     75.61   
    74. D(H  12,C   3,C   1,H  10)    -49.59  0.000028   -0.26    -49.85   
    75. D(H  12,C   3,C   1,O   2)   -164.40 -0.000009   -0.22   -164.62   
    76. D(H  12,C   3,C   1,C   0)     69.41  0.000002   -0.23     69.18   
    77. D(H  13,C   3,C   1,H  10)   -163.66  0.000055   -0.28   -163.94   
    78. D(H  13,C   3,C   1,C   0)    -44.66  0.000029   -0.25    -44.91   
    79. D(H  15,C   4,C   3,H  13)     64.56  0.000016   -0.02     64.54   
    80. D(H  15,C   4,C   3,H  12)    -49.96  0.000008   -0.01    -49.97   
    81. D(H  15,C   4,C   3,C   1)   -173.95 -0.000007    0.01   -173.95   
    82. D(H  14,C   4,C   3,H  13)    -51.70  0.000005   -0.01    -51.72   
    83. D(H  14,C   4,C   3,H  12)   -166.22 -0.000004    0.00   -166.22   
    84. D(H  14,C   4,C   3,C   1)     69.78 -0.000019    0.02     69.80   
    85. D(C   5,C   4,C   3,H  13)   -169.67  0.000007   -0.02   -169.69   
    86. D(C   5,C   4,C   3,H  12)     75.81 -0.000001   -0.00     75.81   
    87. D(C   5,C   4,C   3,C   1)    -48.18 -0.000016    0.01    -48.17   
    88. D(N   6,C   5,C   4,C   3)    -59.95 -0.000020    0.10    -59.85   
    89. D(H  17,C   5,C   4,H  14)    -61.30 -0.000013    0.11    -61.19   
    90. D(H  17,C   5,C   4,C   3)     58.80 -0.000003    0.10     58.90   
    91. D(H  16,C   5,C   4,H  15)    -52.85  0.000007    0.08    -52.77   
    92. D(H  16,C   5,C   4,H  14)     61.25 -0.000013    0.10     61.35   
    93. D(H  16,C   5,C   4,C   3)   -178.65 -0.000002    0.09   -178.56   
    94. D(N   6,C   5,C   4,H  15)     65.85 -0.000010    0.09     65.93   
    95. D(H  17,C   5,C   4,H  15)   -175.40  0.000007    0.09   -175.31   
    96. D(N   6,C   5,C   4,H  14)    179.95 -0.000030    0.11    180.06   
    97. D(H  20,N   6,C   5,H  17)    -62.92  0.000006    0.20    -62.72   
    98. D(H  20,N   6,C   5,C   4)     58.78 -0.000039    0.25     59.03   
    99. D(H  19,N   6,C   5,H  17)     57.20  0.000007    0.20     57.40   
   100. D(H  19,N   6,C   5,H  16)    -58.96 -0.000028    0.24    -58.71   
   101. D(H  19,N   6,C   5,C   4)    178.89 -0.000037    0.24    179.14   
   102. D(H  18,N   6,C   5,H  17)    177.94  0.000007    0.20    178.14   
   103. D(H  20,N   6,C   5,H  16)   -179.07 -0.000029    0.25   -178.83   
   104. D(H  18,N   6,C   5,H  16)     61.78 -0.000028    0.25     62.03   
   105. D(H  18,N   6,C   5,C   4)    -60.36 -0.000038    0.25    -60.12   
    ----------------------------------------------------------------------------

         *************************************************************
         *                GEOMETRY OPTIMIZATION CYCLE   3            *
         *************************************************************
---------------------------------
CARTESIAN COORDINATES (ANGSTROEM)
---------------------------------
  C     -1.685699    1.650731    1.186970
  C     -0.562573    0.745264    0.733470
  O     -0.007744   -0.004195    1.796705
  C     -0.996304   -0.186455   -0.401418
  C     -0.035194   -1.346145   -0.657481
  C      1.425144   -0.970733   -0.761783
  N      1.659091    0.003609   -1.891807
  H     -1.338541    2.338500    1.959438
  H     -2.513218    1.058482    1.589838
  H     -2.078426    2.242043    0.357087
  H      0.260305    1.388065    0.378069
  H     -0.649518   -0.080444    2.508105
  H     -1.161672    0.411069   -1.308554
  H     -1.974632   -0.615720   -0.165779
  H     -0.090347   -2.043825    0.180506
  H     -0.346325   -1.907475   -1.545108
  H      2.055875   -1.835019   -0.969361
  H      1.779236   -0.482733    0.146406
  H      1.377579   -0.398431   -2.788126
  H      2.641356    0.274539   -1.961685
  H      1.107478    0.851815   -1.747353

----------------------------
CARTESIAN COORDINATES (A.U.)
----------------------------
  NO LB      ZA    FRAG    MASS        X           Y           Z
   0 C     6.0000    0    12.011         -3.185509297731159          3.119428806561067          2.243048619504624
   1 C     6.0000    0    12.011         -1.063108425146789          1.408345052976449          1.386056501894516
   2 O     8.0000    0    15.999         -0.014634147534952         -0.007928336945965          3.395281134621099
   3 C     6.0000    0    12.011         -1.882741628497090         -0.352349631165739         -0.758569376809068
   4 C     6.0000    0    12.011         -0.066507498889441         -2.543844483383620         -1.242459821675086
   5 C     6.0000    0    12.011          2.693132748681994         -1.834419636062786         -1.439561011360520
   6 N     7.0000    0    14.007          3.135226910424737          0.006820050869162         -3.574997911963914
   7 H     1.0000    0     1.008         -2.529475802192172          4.419124097704027          3.702801306137550
   8 H     1.0000    0     1.008         -4.749293688749903          2.000241631669357          3.004358105073147
   9 H     1.0000    0     1.008         -3.927656566489215          4.236847062168245          0.674797021725943
  10 H     1.0000    0     1.008          0.491905104583920          2.623061803372093          0.714446940159461
  11 H     1.0000    0     1.008         -1.227410546815229         -0.152017215560944          4.739631594875851
  12 H     1.0000    0     1.008         -2.195241383825761          0.776807094705391         -2.472809132073954
  13 H     1.0000    0     1.008         -3.731513927295139         -1.163542206102686         -0.313276058563982
  14 H     1.0000    0     1.008         -0.170730365949241         -3.862268993187832          0.341107635487085
  15 H     1.0000    0     1.008         -0.654459781961114         -3.604604734800312         -2.919830188527320
  16 H     1.0000    0     1.008          3.885040631902431         -3.467684101721120         -1.831826527365260
  17 H     1.0000    0     1.008          3.362268663629825         -0.912232595643865          0.276666659089614
  18 H     1.0000    0     1.008          2.603247723303230         -0.752926226572424         -5.268794932159317
  19 H     1.0000    0     1.008          4.991438830768979          0.518803034941713         -3.707046749970590
  20 H     1.0000    0     1.008          2.092829754226772          1.609697358776687         -3.302017973653110

--------------------------------
INTERNAL COORDINATES (ANGSTROEM)
--------------------------------
 C      0   0   0   0.000000     0.000     0.000
 C      1   0   0   1.512265     0.000     0.000
 O      2   1   0   1.414212   112.533     0.000
 C      2   1   3   1.531076   112.102   124.939
 C      4   2   1   1.527802   114.075   194.638
 C      5   4   2   1.511424   115.521   311.828
 N      6   5   4   1.510307   111.195   300.151
 H      1   2   3   1.090987   110.699    57.948
 H      1   2   3   1.094463   110.360   297.527
 H      1   2   3   1.092058   111.309   178.241
 H      2   1   3   1.103009   107.563   244.865
 H      3   2   1   0.961133   109.667    23.217
 H      4   2   1   1.098762   108.885    69.180
 H      4   2   1   1.094038   109.417   315.092
 H      5   4   2   1.091798   108.943    69.801
 H      5   4   2   1.095342   110.250   186.054
 H      6   5   4   1.089908   112.044   181.442
 H      6   5   4   1.090106   111.564    58.904
 H      7   6   5   1.021896   111.087   299.884
 H      7   6   5   1.021338   111.796   179.139
 H      7   6   5   1.022056   110.245    59.026

---------------------------
INTERNAL COORDINATES (A.U.)
---------------------------
 C      0   0   0   0.000000     0.000     0.000
 C      1   0   0   2.857766     0.000     0.000
 O      2   1   0   2.672473   112.533     0.000
 C      2   1   3   2.893314   112.102   124.939
 C      4   2   1   2.887128   114.075   194.638
 C      5   4   2   2.856177   115.521   311.828
 N      6   5   4   2.854068   111.195   300.151
 H      1   2   3   2.061666   110.699    57.948
 H      1   2   3   2.068234   110.360   297.527
 H      1   2   3   2.063691   111.309   178.241
 H      2   1   3   2.084386   107.563   244.865
 H      3   2   1   1.816278   109.667    23.217
 H      4   2   1   2.076360   108.885    69.180
 H      4   2   1   2.067433   109.417   315.092
 H      5   4   2   2.063199   108.943    69.801
 H      5   4   2   2.069897   110.250   186.054
 H      6   5   4   2.059628   112.044   181.442
 H      6   5   4   2.060002   111.564    58.904
 H      7   6   5   1.931105   111.087   299.884
 H      7   6   5   1.930048   111.796   179.139
 H      7   6   5   1.931405   110.245    59.026



           ************************************************************
           *        Program running with 8 parallel MPI-processes     *
           *              working on a common directory               *
           ************************************************************
           ************************************************************
           *              Shut down parallel processing               *
           ************************************************************


           ************************************************************
           *        Program running with 8 parallel MPI-processes     *
           *              working on a common directory               *
           ************************************************************

Diagonalization of the overlap matrix:
Smallest eigenvalue                        ... 1.091e-04
Time for diagonalization                   ...    0.923 sec
Threshold for overlap eigenvalues          ... 1.000e-08
Number of eigenvalues below threshold      ... 0
Time for construction of square roots      ...    0.062 sec
Total time needed                          ...    0.985 sec

-------------------
DFT GRID GENERATION
-------------------

General Integration Accuracy     IntAcc      ...  4.340
Radial Grid Type                 RadialGrid  ... Gauss-Chebyshev
Angular Grid (max. acc.)         AngularGrid ... Lebedev-194
Angular grid pruning method      GridPruning ... 3 (G Style)
Weight generation scheme         WeightScheme... Becke
Basis function cutoff            BFCut       ...    1.0000e-11
Integration weight cutoff        WCut        ...    1.0000e-14
Grids for H and He will be reduced by one unit

# of grid points (after initial pruning)     ...  44482 (   0.0 sec)
# of grid points (after weights+screening)   ...  40356 (   0.4 sec)
nearest neighbour list constructed           ...    0.0 sec
Grid point re-assignment to atoms done       ...    0.0 sec
Grid point division into batches done        ...    0.1 sec
Reduced shell lists constructed in    0.3 sec

Total number of grid points                  ...    40356
Total number of batches                      ...      643
Average number of points per batch           ...       62
Average number of grid points per atom       ...     1922
Average number of shells per batch           ...   100.90 (75.87%)
Average number of basis functions per batch  ...   234.95 (78.06%)
Average number of large shells per batch     ...    79.96 (79.25%)
Average number of large basis fcns per batch ...   184.48 (78.52%)
Maximum spatial batch extension              ...  13.40, 11.52, 12.82 au
Average spatial batch extension              ...   0.20,  0.19,  0.19 au

Time for grid setup =    1.090 sec

--------------
SCF ITERATIONS
--------------
ITER       Energy         Delta-E        Max-DP      RMS-DP      [F,P]     Damp
               ***  Starting incremental Fock matrix formation  ***
                      *** Initiating the SOSCF procedure ***
                      *** Re-Reading the Fockian *** 
                      *** Removing any level shift *** 
ITER      Energy       Delta-E        Grad      Rot      Max-DP    RMS-DP
  0   -328.43690676 -328.4369067622  0.000382  0.000382  0.001221  0.000023
               *** Restarting incremental Fock matrix formation ***
  1   -328.43692503  -0.0000182654  0.000115  0.000176  0.000544  0.000009
  2   -328.43692666  -0.0000016290  0.000024  0.000045  0.000116  0.000003
  3   -328.43692666  -0.0000000021  0.000029  0.000018  0.000066  0.000001
  4   -328.43692671  -0.0000000492  0.000004  0.000005  0.000021  0.000000
  5   -328.43692671  -0.0000000004  0.000003  0.000002  0.000013  0.000000
                  ***Gradient check signals convergence***
              ***Rediagonalizing the Fockian in SOSCF/NRSCF***

               *****************************************************
               *                     SUCCESS                       *
               *           SCF CONVERGED AFTER   6 CYCLES          *
               *****************************************************

Setting up the final grid:

General Integration Accuracy     IntAcc      ...  5.010
Radial Grid Type                 RadialGrid  ... Gauss-Chebyshev
Angular Grid (max. acc.)         AngularGrid ... Lebedev-434
Angular grid pruning method      GridPruning ... 3 (G Style)
Weight generation scheme         WeightScheme... Becke
Basis function cutoff            BFCut       ...    1.0000e-11
Integration weight cutoff        WCut        ...    1.0000e-14
Grids for H and He will be reduced by one unit

# of grid points (after initial pruning)     ... 168610 (   0.0 sec)
# of grid points (after weights+screening)   ... 150764 (   5.2 sec)
nearest neighbour list constructed           ...    0.0 sec
Grid point re-assignment to atoms done       ...    0.0 sec
Grid point division into batches done        ...    0.9 sec
Reduced shell lists constructed in    1.2 sec

Total number of grid points                  ...   150764
Total number of batches                      ...     2368
Average number of points per batch           ...       63
Average number of grid points per atom       ...     7179
Average number of shells per batch           ...    98.49 (74.06%)
Average number of basis functions per batch  ...   229.08 (76.11%)
Average number of large shells per batch     ...    77.12 (78.30%)
Average number of large basis fcns per batch ...   177.40 (77.44%)
Maximum spatial batch extension              ...  10.18, 12.19, 10.73 au
Average spatial batch extension              ...   0.12,  0.12,  0.12 au

[...]
      0       0.003552   0.004028   0.007427   0.022800   0.039870   0.035279
      1       0.000341  -0.009993  -0.011339  -0.026628  -0.048444  -0.050347
      2      -0.003007   0.012773   0.007485   0.027786   0.001114  -0.018731
      3      -0.000592  -0.000770  -0.000600  -0.000367  -0.002031  -0.004446
      4      -0.000732   0.003599   0.001668  -0.003226   0.003659   0.010105
      5       0.010402  -0.014908   0.001789   0.041537   0.027422   0.009594
      6      -0.001196  -0.000428  -0.000660   0.000280  -0.005991  -0.001410
      7      -0.002431   0.001445   0.000219  -0.003909   0.002477   0.002471
      8       0.067634  -0.007867   0.010264   0.053188   0.102616   0.008471
      9      -0.013352   0.014577  -0.020456   0.007828  -0.031828  -0.067293
     10       0.021840  -0.015426   0.028403  -0.004315   0.048144   0.084388
     11      -0.021535  -0.011627  -0.008249  -0.025346  -0.027025   0.005466
     12       0.002465   0.007186   0.003935   0.000128   0.008962   0.014399
     13       0.000104  -0.007060  -0.002497   0.000506  -0.001687  -0.003504
     14      -0.025854  -0.007070  -0.014533  -0.030997  -0.051018  -0.045964
     15      -0.001651  -0.001226   0.000876  -0.002786   0.003654   0.008203
     16       0.002322  -0.000996  -0.000127   0.003316   0.000245  -0.003006
     17      -0.022508   0.022360   0.005275  -0.010796  -0.005722   0.024345
     18      -0.032049  -0.052548  -0.022646  -0.015586   0.005245   0.013194
     19       0.038291   0.071072   0.026200  -0.009088   0.023186  -0.031043
     20       0.000236  -0.015164  -0.008687  -0.021078   0.027465  -0.008401
     21      -0.007877   0.001905  -0.000701  -0.008304  -0.008216   0.002467
     22       0.055641  -0.027984  -0.004209  -0.000236   0.013607   0.005380
     23      -0.308982   0.184508   0.038775   0.053078  -0.035818  -0.052857
     24      -0.002109  -0.000914  -0.000667  -0.001583  -0.004425  -0.001316
     25       0.055407  -0.032637   0.002004   0.046546   0.036126  -0.001416
     26      -0.275762   0.183431   0.001993  -0.213865  -0.164949   0.018354
     27       0.145158  -0.037803  -0.036313   0.154567   0.130902  -0.068012
     28      -0.298869   0.093925   0.060074  -0.080177  -0.117463   0.089698
     29       0.488464  -0.195641  -0.045534  -0.673784  -0.320093   0.040193
     30       0.034037  -0.032040  -0.012577   0.036363  -0.007658  -0.061295
     31      -0.038234   0.041154   0.017104  -0.035054   0.016255   0.078397
     32      -0.022580  -0.027935   0.000700  -0.041771  -0.028135  -0.004552
     33      -0.098995  -0.014790  -0.024200  -0.025142  -0.094874   0.009104
     34       0.137974   0.017504   0.032628   0.044159   0.124563  -0.012439
     35      -0.095650   0.007379  -0.019565  -0.090618  -0.007121  -0.002075
     36       0.090104  -0.057861  -0.031062  -0.026010  -0.009103   0.087931
     37      -0.105438   0.114692   0.056868   0.044688   0.012231  -0.104225
     38      -0.107335  -0.189348  -0.088459  -0.086657  -0.072166  -0.055612
     39       0.190173  -0.100448  -0.039236  -0.054864   0.058212   0.103189
     40      -0.258699   0.113542   0.062550   0.012891  -0.044280  -0.102731
     41       0.024455   0.079831  -0.048818   0.233653  -0.157212  -0.142797
     42      -0.133857   0.146542   0.054474  -0.119049   0.072862   0.230475
     43       0.162545  -0.193492  -0.082745   0.134741  -0.109211  -0.322429
     44       0.017386   0.046997   0.053543   0.058440   0.039537   0.079788
     45      -0.016393   0.007913  -0.010176  -0.010385  -0.009224  -0.018967
     46      -0.002539  -0.001550  -0.004814  -0.001789  -0.019104  -0.021493
     47       0.080086  -0.037180   0.069415   0.062178   0.080822   0.114799
     48       0.035281  -0.040769   0.588585  -0.036184  -0.092786  -0.084300
     49      -0.052518   0.067540  -0.752575   0.037266   0.128611   0.106334
     50      -0.017723   0.122968   0.150780  -0.068971   0.139193   0.097504
     51       0.026596  -0.025198   0.001707  -0.071832   0.081123  -0.010093
     52      -0.040305   0.035967  -0.001329   0.091918  -0.104348   0.011456
     53      -0.073803   0.084156   0.033362  -0.050316   0.082489   0.096515
     54       0.088699   0.063826   0.011147   0.092854  -0.111852   0.081590
     55      -0.037890  -0.113152  -0.011463   0.151490  -0.347616   0.229166
     56       0.133590   0.032217  -0.005478   0.364224  -0.641245   0.549770
     57       0.248930   0.448017  -0.049059   0.044888  -0.185769  -0.223397
     58      -0.302701  -0.662165   0.062454   0.092946   0.016423  -0.048655
     59       0.026159  -0.074309  -0.020163   0.181791  -0.278359  -0.504531
     60      -0.021281   0.095059  -0.021702  -0.092094  -0.018950  -0.043201
     61      -0.052387  -0.107879   0.003977   0.010522   0.009846   0.036651
     62      -0.200341   0.100308  -0.064637  -0.304714   0.010763   0.049145
                 54         55         56         57         58         59    
      0      -0.015206  -0.026141   0.159640   0.121286   0.020187   0.022996
      1       0.022060   0.041129  -0.191606  -0.147303  -0.013374  -0.012675
      2       0.007137   0.004221  -0.138048  -0.081991  -0.085203  -0.019438
      3      -0.002029   0.005296   0.010397  -0.021837   0.076178   0.001516
      4      -0.008182  -0.010810   0.013161   0.050995  -0.064665  -0.002724
      5       0.062178  -0.016487   0.016538  -0.014022  -0.066283  -0.004290
      6       0.002301  -0.001963  -0.038864   0.001259   0.100748  -0.014882
      7       0.002087   0.000374   0.044387   0.005084  -0.127002   0.032106
      8      -0.062748   0.012658  -0.059705  -0.003576   0.001511  -0.002740
      9      -0.043317   0.063850  -0.086425   0.079550  -0.027054   0.019993
     10       0.035461  -0.079158   0.095744  -0.139944   0.024316  -0.039986
     11       0.109405  -0.009300   0.078568  -0.007874   0.021086  -0.025615
     12      -0.008679  -0.014879   0.022096  -0.144993  -0.019982  -0.119622
     13       0.009649   0.002440  -0.055378   0.169010   0.014799   0.149912
     14       0.057599   0.053176   0.097380   0.054164   0.059512   0.007787
     15      -0.007878  -0.010398   0.017759  -0.127828  -0.046639   0.081411
     16      -0.003090   0.002928  -0.026066   0.121183   0.045580  -0.167785
     17      -0.004627  -0.020473   0.054985  -0.001734   0.028365  -0.004485
     18      -0.017762   0.001999  -0.048523   0.049739  -0.041527  -0.033019
     19       0.026666   0.034551   0.049687  -0.027389   0.039334   0.088383
     20       0.010220   0.040239  -0.032108   0.035666   0.087058   0.007260
     21      -0.001571  -0.002562   0.029284   0.098371   0.123630   0.211507
     22       0.037483  -0.010615  -0.055594  -0.106465  -0.093459  -0.279196
     23      -0.234157   0.054739   0.067539  -0.142135  -0.228507  -0.048116
     24       0.006811   0.001226   0.007193  -0.031323  -0.132773  -0.208490
     25       0.038816   0.004993  -0.068507   0.016581   0.214288   0.215390
     26      -0.220302  -0.076293   0.129224   0.055812  -0.054821   0.104018
     27       0.073454   0.134781   0.188451   0.068862  -0.202249   0.014790
     28      -0.025932  -0.175369  -0.273121  -0.092641   0.256084  -0.043530
     29      -0.358349  -0.105412   0.072156  -0.028804  -0.017110  -0.003720
     30       0.011848   0.062264  -0.018775  -0.067067  -0.084998   0.147335
     31      -0.016163  -0.081449   0.011027   0.096655   0.148798  -0.181954
     32       0.036797   0.008287  -0.036761  -0.139033  -0.150014  -0.014241
     33       0.168680  -0.039915  -0.101493   0.099859  -0.262240  -0.020246
     34      -0.215480   0.048995   0.093828  -0.117092   0.380949   0.012919
     35      -0.014457   0.018523   0.076022  -0.021072  -0.141948   0.042467
     36       0.278186  -0.078458  -0.222011  -0.100669   0.190657   0.000417
     37      -0.339100   0.100893   0.344092   0.090332  -0.223941  -0.076986
     38      -0.066057  -0.028181  -0.101183   0.158895  -0.070752   0.129243
     39       0.181411  -0.062405  -0.099575   0.221052  -0.218804   0.051931
     40      -0.167693   0.082028   0.184118  -0.297780   0.266241  -0.099090
     41      -0.241422  -0.020688  -0.140369   0.050233   0.068710   0.044229
     42       0.110137  -0.218833  -0.217025   0.136655  -0.038806   0.072915
     43      -0.102434   0.322619   0.334466  -0.225163   0.101068  -0.138290
     44      -0.140935  -0.158237  -0.271079   0.225029  -0.051018   0.141684
     45       0.068799   0.032922   0.080500  -0.324100   0.054472   0.398094
     46       0.019320   0.024799  -0.052759   0.502549  -0.002453  -0.596203
     47      -0.448602  -0.238606  -0.126378  -0.092796  -0.052657   0.036163
     48       0.067200   0.067991  -0.032242   0.109053  -0.045778   0.037364
     49      -0.079491  -0.092817   0.055899  -0.046011   0.046540   0.057213
     50      -0.114521  -0.038627  -0.024969   0.104780   0.053872   0.044505
     51       0.025113   0.079910   0.208180   0.020825  -0.228423  -0.018913
     52      -0.037243  -0.110214  -0.246489  -0.009449   0.279722   0.035231
     53      -0.162296  -0.027261   0.116928  -0.028248  -0.006188  -0.031845
     54      -0.014182   0.017736  -0.022235   0.091249  -0.040598   0.003298
     55      -0.013488   0.059803   0.110928  -0.089170  -0.025397   0.049182
     56      -0.052779   0.183399   0.064908   0.034971  -0.010362   0.027815
     57       0.091007  -0.251174   0.043784   0.048025  -0.080252  -0.037475
     58      -0.107761  -0.137972   0.079930  -0.006517   0.027138   0.111553
     59       0.054066  -0.661495   0.199688   0.028112  -0.003138   0.012605
     60       0.062208   0.048650  -0.024100   0.036022  -0.087914  -0.032478
     61      -0.060563  -0.003757   0.043129  -0.058669   0.014306   0.068946
     62       0.056185   0.197087   0.064242  -0.031449  -0.063116   0.006403
                  60         61         62    
      0       0.009552  -0.013383   0.030275
      1      -0.013694   0.024525   0.001680
      2      -0.011074  -0.017318  -0.039781
      3      -0.014674  -0.146622  -0.017173
      4       0.035366   0.183615   0.018368
      5      -0.016966   0.003123   0.002462
      6       0.037971   0.086916   0.044292
      7      -0.051714  -0.113480   0.007040
      8       0.005008   0.004896  -0.027984
      9      -0.014427  -0.000917   0.017084
     10       0.001042   0.011654   0.010060
     11       0.004553   0.003668  -0.041223
     12      -0.060841   0.040306   0.013158
     13       0.068185  -0.063653  -0.019610
     14       0.028675   0.023788  -0.033051
     15       0.022012   0.017756  -0.038301
     16      -0.053286  -0.011277   0.024010
     17      -0.011427   0.005804   0.051765
     18       0.010316  -0.009450  -0.071418
     19       0.006168  -0.013368   0.015732
     20       0.020009   0.031770   0.059982
     21      -0.401429   0.174350  -0.131805
     22       0.523406  -0.183611   0.106096
     23       0.008714  -0.099798   0.068911
     24       0.408013  -0.194878   0.112430
     25      -0.458651   0.284994  -0.186805
     26      -0.131955  -0.061166  -0.045326
     27      -0.042380  -0.093972  -0.067202
     28       0.070338   0.115789   0.018454
     29      -0.004889  -0.018548   0.008867
     30      -0.124543   0.000568   0.590757
     31       0.171652   0.043765  -0.682397
     32      -0.058748  -0.066719   0.036174
     33       0.026882   0.249473  -0.008783
     34      -0.002470  -0.237061   0.009833
     35      -0.056174  -0.111138   0.051748
     36      -0.073029  -0.301817   0.011342
     37       0.115363   0.496226  -0.045406
     38      -0.001210  -0.148756   0.001690
     39       0.018353   0.241431   0.040515
     40      -0.012976  -0.249221  -0.054499
     41       0.010342  -0.081008  -0.038555
     42      -0.015774  -0.023473   0.056846
     43       0.028153   0.079936  -0.073951
     44       0.012846  -0.086858   0.006813
     45       0.154799   0.126365  -0.035923
     46      -0.200720  -0.122274   0.070292
     47      -0.008142  -0.012498  -0.015215
     48       0.010100  -0.030908  -0.021106
     49       0.013260  -0.008605   0.017735
     50       0.008565  -0.004441   0.041289
     51      -0.043879  -0.092137  -0.071075
     52       0.055121   0.108937   0.079122
     53      -0.024201   0.002664   0.048136
     54       0.013234  -0.019479  -0.070140
     55      -0.002268  -0.027209  -0.020181
     56      -0.004024  -0.018582   0.037192
     57       0.012832  -0.026702  -0.094694
     58      -0.008061  -0.021269   0.015381
     59      -0.012760  -0.010539   0.072697
     60       0.006409  -0.031384  -0.081851
     61      -0.005243  -0.019656   0.004798
     62      -0.021529  -0.028961   0.049135


-----------
IR SPECTRUM
-----------

 Mode    freq (cm**-1)   T**2         TX         TY         TZ
-------------------------------------------------------------------
  51:      6152.68  1009.065512  ( 29.768808  10.767655  -2.634615)
  52:     11892.51  2223.091716  ( 29.683702   3.917047 -36.422882)
  53:     13446.05  797.668175  (-19.956110  -9.949951 -17.332638)
  54:     14426.45  5546.576410  (-21.217445   4.717831  71.232987)
  55:     15884.10  1623.149688  (-22.699724   1.004233  33.269561)
  56:     31365.02  5307.791921  (-37.357428 -30.977833 -54.337725)
  57:     54450.00  30488.320876  (-30.507432 -55.725276 -162.641665)
  58:     62556.17  57090.277481  ( 10.496730   9.889686 -238.500084)
  59:     69080.09  1461.938718  ( -8.157243 -21.249382  30.722335)
  60:     75614.44  49201.356659  ( -2.661556 -39.282520 -218.291448)
  61:     79755.43  96429.016684  ( 46.554624 -23.772371 -306.098935)
  62:     94702.03  36615.400765  ( 52.892935  33.086657 180.895028)

The first frequency considered to be a vibration is 51
The total number of vibrations considered is 12


--------------------------
THERMOCHEMISTRY AT 298.15K
--------------------------

Temperature         ... 298.15 K
Pressure            ... 1.00 atm
Total Mass          ... 104.17 AMU

Throughout the following assumptions are being made:
  (1) The electronic state is orbitally nondegenerate
  (2) There are no thermally accessible electronically excited states
  (3) Hindered rotations indicated by low frequency modes) are not
      treated as such but are treated as vibrations and this may
      case some error
  (4) All equations used are the standard statistical mechanics
      equations for an ideal gas
  (5) All vibrations are strinctly harmonic


------------
INNER ENERGY
------------

The inner energy is: U= E(el) + E(ZPE) + E(vib) + E(rot) + E(trans)
    E(el)   - is the total energy from the electronic structure calculation
              = E(kin-el) + E(nuc-el) + E(el-el) + E(nuc-nuc)
    E(ZPE)  - the the zero temperature vibrational energy from the frequency calculation
    E(vib)  - the the finite temperature correction to E(ZPE) due to population
              of excietd vibrational states
    E(rot)  - is the rotational thermal energy
    E(trans)- is the translational thermal energy

Summary of contributions to the inner energy U:
Electronic energy                ...   -328.43699349 Eh
Zero point energy                ...      1.20589100 Eh     756.71 kcal/mol
Thermal vibrational correction   ...      0.00000000 Eh       0.00 kcal/mol
Thermal rotational correction    ...      0.00141627 Eh       0.89 kcal/mol
Thermal translational correction ...      0.00141627 Eh       0.89 kcal/mol
-----------------------------------------------------------------------
Total thermal energy                   -327.22826995 Eh


Summary of corrections to the electronic energy:
(perhaps to be used in another calculation)
Total thermal correction                  0.00283254 Eh       1.78 kcal/mol
Non-thermal (ZPE) correction              1.20589100 Eh     756.71 kcal/mol
-----------------------------------------------------------------------
Total correction                          1.20872354 Eh     758.48 kcal/mol


--------
ENTHALPY
--------

The enthalpy is H = U + kB*T
                kB is Boltzmann's constant
Total free energy                 ...   -327.22826995 Eh 
Thermal Enthalpy correction       ...      0.00094421 Eh       0.59 kcal/mol
-----------------------------------------------------------------------
Total Enthalpy                    ...   -327.22732574 Eh


-------
ENTROPY
-------

The entropy contributions are T*S = T*(S(el)+S(vib)+S(rot)+S(trans)
     S(el)   - electronic entropy
     S(vib)  - vibrational entropy
     S(rot)  - rotational entropy
     S(trans)- translational entropy
The entropies will be listed as mutliplied by the temperature to get
units of energy

Electronic entropy                ...      0.00000000 Eh      0.00 kcal/mol
Vibrational entropy               ...      0.00000000 Eh      0.00 kcal/mol
Rotational entropy                ...      0.01228430 Eh      7.71 kcal/mol
Translational entropy             ...      0.01892914 Eh     11.88 kcal/mol
-----------------------------------------------------------------------
Final entropy term                ...      0.03121344 Eh     19.59 kcal/mol


CAUTION: The rotational entropy is not quite correctly treated here
         because it includes a symmetry number that is not yet correctly
         implemented in ORCA!
For a nonlinear molecule the correct rotational entropy is:
    S(rot) = R*(ln(qrot/sn)+1.5)
    R    = 8.31441 J/mol/K = 1.987191683e-3 kcal/mol/K
    qrot = 299283.2598231
    sn is the rotational symmetry number. We have assumed 3 here
       if it is different for your molecule then you should correct
       the printed rotational entropy by manually evaluating the equation
       as given above

For convenience we print out the resulting values for sn=1 - 12:
 sn= 1  qrot/sn=  299283.2598 T*S(rot)=     8.36 kcal/mol T*S(tot)=    20.24 kcal/mol
 sn= 2  qrot/sn=  149641.6299 T*S(rot)=     7.95 kcal/mol T*S(tot)=    19.83 kcal/mol
 sn= 3  qrot/sn=   99761.0866 T*S(rot)=     7.71 kcal/mol T*S(tot)=    19.59 kcal/mol
 sn= 4  qrot/sn=   74820.8150 T*S(rot)=     7.54 kcal/mol T*S(tot)=    19.42 kcal/mol
 sn= 5  qrot/sn=   59856.6520 T*S(rot)=     7.41 kcal/mol T*S(tot)=    19.28 kcal/mol
 sn= 6  qrot/sn=   49880.5433 T*S(rot)=     7.30 kcal/mol T*S(tot)=    19.18 kcal/mol
 sn= 7  qrot/sn=   42754.7514 T*S(rot)=     7.21 kcal/mol T*S(tot)=    19.08 kcal/mol
 sn= 8  qrot/sn=   37410.4075 T*S(rot)=     7.13 kcal/mol T*S(tot)=    19.01 kcal/mol
 sn= 9  qrot/sn=   33253.6955 T*S(rot)=     7.06 kcal/mol T*S(tot)=    18.94 kcal/mol
 sn=10  qrot/sn=   29928.3260 T*S(rot)=     7.00 kcal/mol T*S(tot)=    18.87 kcal/mol
 sn=11  qrot/sn=   27207.5691 T*S(rot)=     6.94 kcal/mol T*S(tot)=    18.82 kcal/mol
 sn=12  qrot/sn=   24940.2717 T*S(rot)=     6.89 kcal/mol T*S(tot)=    18.77 kcal/mol


-------------------
GIBBS FREE ENTHALPY
-------------------

The Gibbs free enthalpy is G = H - T*S

Total enthalpy                    ...   -327.22732574 Eh 
Total entropy correction          ...     -0.03121344 Eh    -19.59 kcal/mol
-----------------------------------------------------------------------
Final Gibbs free enthalpy         ...   -327.25853918 Eh

For completeness - the Gibbs free enthalpy minus the electronic energy
G-E(el)                           ...      1.17845431 Eh    739.49 kcal/mol


Timings for individual modules:

Sum of individual times         ...     6074.238 sec (= 101.237 min)
GTO integral calculation        ...       23.671 sec (=   0.395 min)   0.4 %
SCF iterations                  ...     1006.939 sec (=  16.782 min)  16.6 %
SCF Gradient evaluation         ...      567.042 sec (=   9.451 min)   9.3 %
Geometry relaxation             ...        0.854 sec (=   0.014 min)   0.0 %
Analytical frequency calculation...     4475.732 sec (=  74.596 min)  73.7 %
                             ****ORCA TERMINATED NORMALLY****
TOTAL RUN TIME: 0 days 1 hours 41 minutes 16 seconds 720 msec
