
                                 *****************
                                 * O   R   C   A *
                                 *****************

           --- An Ab Initio, DFT and Semiempirical electronic structure package ---

                  #######################################################
                  #                        -***-                        #
                  #  Department of molecular theory and spectroscopy    #
                  #              Directorship: Frank Neese              #
                  # Max Planck Institute for Chemical Energy Conversion #
                  #                  D-45470 Muelheim/Ruhr              #
                  #                       Germany                       #
                  #                                                     #
                  #                  All rights reserved                #
                  #                        -***-                        #
                  #######################################################


                         Program Version 3.0.3 - RELEASE   -


 With contributions from (in alphabetic order):
   Ute Becker             : Parallelization
   Dmytro Bykov           : SCF Hessian
   Dmitry Ganyushin       : Spin-Orbit,Spin-Spin,Magnetic field MRCI
   Andreas Hansen         : Spin unrestricted coupled pair/coupled cluster methods
   Dimitrios Liakos       : Extrapolation schemes; parallel MDCI
   Robert Izsak           : Overlap fitted RIJCOSX, COSX-SCS-MP3
   Christian Kollmar      : KDIIS, OOCD, Brueckner-CCSD(T), CCSD density
   Simone Kossmann        : Meta GGA functionals, TD-DFT gradient, OOMP2, MP2 Hessian
   Taras Petrenko         : DFT Hessian,TD-DFT gradient, ASA and ECA modules, normal mode analysis, Resonance Raman, ABS, FL, XAS/XES, NRVS
   Christoph Reimann      : Effective Core Potentials
   Michael Roemelt        : Restricted open shell CIS
   Christoph Riplinger    : Improved optimizer, TS searches, QM/MM, DLPNO-CCSD
   Barbara Sandhoefer     : DKH picture change effects
   Igor Schapiro          : Molecular dynamics
   Kantharuban Sivalingam : CASSCF convergence, NEVPT2
   Boris Wezisla          : Elementary symmetry handling
   Frank Wennmohs         : Technical directorship


 We gratefully acknowledge several colleagues who have allowed us to
 interface, adapt or use parts of their codes:
   Stefan Grimme, W. Hujo, H. Kruse, T. Risthaus : VdW corrections, initial TS optimization,
                                                   DFT functionals, gCP
   Ed Valeev                                     : LibInt (2-el integral package), F12 methods
   Garnet Chan, S. Sharma, R. Olivares           : DMRG
   Ulf Ekstrom                                   : XCFun DFT Library
   Mihaly Kallay                                 : mrcc  (arbitrary order and MRCC methods)
   Andreas Klamt, Michael Diedenhofen            : otool_cosmo (COSMO solvation model)
   Frank Weinhold                                : gennbo (NPA and NBO analysis)
   Christopher J. Cramer and Donald G. Truhlar   : smd solvation model


 Your calculation uses the libint2 library for the computation of 2-el integrals
 For citations please refer to: http://libint.valeyev.net

 This ORCA versions uses:
   CBLAS   interface :  Fast vector & matrix operations
   LAPACKE interface :  Fast linear algebra routines
   SCALAPACK package :  Parallel linear algebra routines


Your calculation utilizes the basis: Ahlrichs-TZV
Cite in your paper:
H - Kr: A. Schaefer, H. Horn and R. Ahlrichs, J. Chem. Phys. 97, 2571 (1992).

The def2-TZV basis will be loaded
Cite in your paper:
 	F. Weigend, R. Ahlrichs, Phys. Chem. Chem. Phys. 2005, 7, 3297.

================================================================================
                                        WARNINGS
                       Please study these warnings very carefully!
================================================================================
Now building the actual basis set
WARNING: Geometry optimizations can change the point-group symmetry!

WARNING: Geometry Optimization
  ===> : Switching off AutoStart
         For restart on a previous wavefunction, please use MOREAD


INFO   : the flag for use of LIBINT has been found!

================================================================================
                                       INPUT FILE
================================================================================
NAME = 5701_+.inp
|  1> ! NORI PBE0 def2-TZVP UseSym TightOPT Freq TightSCF Grid3 FinalGrid5 XYZFile
|  2> % pal
|  3>     nprocs 8
|  4> end
|  5> %method
|  6>     SymThresh 5.0e-2
|  7> end
|  8> % geom 
|  9>     MaxIter 10
| 10> end 
| 11> % maxcore 2000
| 12> % output
| 13>     printlevel mini
| 14>     print[ P_Basis ] 0
| 15>     print[ P_SCFInfo ] 1
| 16>     print[ P_SCFIterInfo ] 1
| 17>     print[ P_OrbEn ] 0
| 18>     print[ P_Cartesian ] 0
| 19> end
| 20> % elprop
| 21>     Dipole false
| 22> end
| 23> *xyz 1 1
| 24>  C        1.0039776387     0.0690039687     0.1053699262 
| 25>  N        2.4853422949     0.1641010929    -0.0032670803 
| 26>  C        2.9938707926     1.5271577825    -0.4049267327 
| 27>  C        4.4327579467     1.5103114028    -0.4827522148 
| 28>  C        5.6316433221     1.4192059702    -0.5324603615 
| 29>  C        7.0825501931     1.2748132193    -0.5772075218 
| 30>  O        7.6026397987     0.2232693023    -0.3347738223 
| 31>  H        0.7368212838    -0.9459963457     0.3930851357 
| 32>  H        0.5666611385     0.3114187810    -0.8613722681 
| 33>  H        0.6621820670     0.7746165192     0.8600579244 
| 34>  H        2.9226062067    -0.0888671742     0.8864096012 
| 35>  H        2.8338373920    -0.5174256211    -0.6820454928 
| 36>  H        2.5341178002     1.7720954584    -1.3658047137 
| 37>  H        2.6310441523     2.2392923375     0.3404657779 
| 38>  H        7.6442179729     2.1854133061    -0.8435481574 
| 39> *
| 40> 
| 41>                          ****END OF INPUT****
================================================================================
---------------------
ASYMMETRIC UNIT IN Cs
---------------------
  #  AT     MASS              COORDS (A.U.)             BAS
   0 C   12.0110  -6.03598183   2.69101098   0.00000000   0
   1 N   14.0070  -3.31637240   1.97365268   0.00000000   0
   2 C   12.0110  -2.84147956  -0.83860196   0.00000000   0
   3 C   12.0110  -0.16216405  -1.32585377   0.00000000   0
   4 C   12.0110   2.09691280  -1.58618660   0.00000000   0
   5 C   12.0110   4.84255504  -1.83236307   0.00000000   0
   6 O   15.9990   6.17169590   0.00000000   0.00000000   0
   7 H    1.0080  -6.18232786   4.74236846   0.00000000   0
   8 H    1.0080  -6.92324661   1.91822177   1.68677677   0
  10 H    1.0080  -2.42528756   2.73292710  -1.53857470   0
  12 H    1.0080  -3.77065972  -1.61312790   1.67402478   0
  14 H    1.0080   5.57196387  -3.78389453   0.00000000   0


                       *****************************
                       * Geometry Optimization Run *
                       *****************************

Geometry optimization settings:
Update method            Update   .... BFGS
Choice of coordinates    CoordSys .... Redundant Internals
Initial Hessian          InHess   .... Almoef's Model

Convergence Tolerances:
Energy Change            TolE     ....  1.0000e-06 Eh
Max. Gradient            TolMAXG  ....  1.0000e-04 Eh/bohr
RMS Gradient             TolRMSG  ....  3.0000e-05 Eh/bohr
Max. Displacement        TolMAXD  ....  1.0000e-03 bohr
RMS Displacement         TolRMSD  ....  6.0000e-04 bohr

------------------------------------------------------------------------------
                        ORCA OPTIMIZATION COORDINATE SETUP
------------------------------------------------------------------------------

The optimization will be done in new redundant internal coordinates
Making redundant internal coordinates   ...  (new redundants) done
Evaluating the initial hessian          ...  (Almloef) done
Evaluating the coordinates              ...  done
Calculating the B-matrix                .... done
Calculating the G-matrix                .... done
Diagonalizing the G-matrix              .... done
Small eigenvalue found = 1.454e-02
The first mode is                       ....   24
The number of degrees of freedom        ....   39

    -----------------------------------------------------------------
                    Redundant Internal Coordinates


    -----------------------------------------------------------------
         Definition                    Initial Value    Approx d2E/dq
    -----------------------------------------------------------------
      1. B(N   1,C   0)                  1.4884         0.389869   
      2. B(C   2,N   1)                  1.5093         0.361093   
      3. B(C   3,C   2)                  1.4411         0.517884   
      4. B(C   4,C   3)                  1.2034         1.240238   
      5. B(C   5,C   4)                  1.4588         0.485330   
      6. B(O   6,C   5)                  1.1979         1.133424   
      7. B(H   7,C   0)                  1.0883         0.362368   
      8. B(H   8,C   0)                  1.0883         0.362339   
      9. B(H   9,C   0)                  1.0883         0.362339   
     10. B(H  10,N   1)                  1.0231         0.412421   
     11. B(H  11,N   1)                  1.0231         0.412421   
     12. B(H  12,C   2)                  1.0929         0.356244   
     13. B(H  13,C   2)                  1.0929         0.356244   
     14. B(H  14,C   5)                  1.1025         0.343960   
     15. A(N   1,C   0,H   8)          108.7425         0.324979   
     16. A(H   7,C   0,H   8)          110.1272         0.291410   
     17. A(H   7,C   0,H   9)          110.1272         0.291410   
     18. A(N   1,C   0,H   7)          108.8571         0.324984   
     19. A(N   1,C   0,H   9)          108.7425         0.324979   
     20. A(H   8,C   0,H   9)          110.2041         0.291407   
     21. A(C   0,N   1,H  10)          110.2123         0.329165   
     22. A(C   0,N   1,C   2)          114.3614         0.359388   
     23. A(C   2,N   1,H  10)          108.0895         0.325033   
     24. A(H  10,N   1,H  11)          105.4652         0.298650   
     25. A(C   2,N   1,H  11)          108.0895         0.325033   
     26. A(C   0,N   1,H  11)          110.2123         0.329165   
     27. A(C   3,C   2,H  13)          112.0574         0.341758   
     28. A(C   3,C   2,H  12)          112.0574         0.341758   
     29. A(N   1,C   2,C   3)          109.8918         0.379727   
     30. A(N   1,C   2,H  12)          107.1495         0.320031   
     31. A(H  12,C   2,H  13)          108.2960         0.289858   
     32. A(N   1,C   2,H  13)          107.1495         0.320031   
     33. L(C   2,C   3,C   4,N   1, 1) 176.2667         0.476583   
     34. L(C   2,C   3,C   4,N   1, 2) 180.0000         0.476583   
     35. L(C   3,C   4,C   5,O   6, 2) 180.0000         0.470930   
     36. L(C   3,C   4,C   5,O   6, 1) 178.5498         0.470930   
     37. A(C   4,C   5,O   6)          120.8325         0.460144   
     38. A(O   6,C   5,H  14)          123.5502         0.385933   
     39. A(C   4,C   5,H  14)          115.6173         0.336101   
     40. D(H  11,N   1,C   0,H   7)     57.9993         0.013902   
     41. D(C   2,N   1,C   0,H   8)     60.0085         0.013902   
     42. D(H  10,N   1,C   0,H   7)    -57.9993         0.013902   
     43. D(H  11,N   1,C   0,H   8)    -61.9922         0.013902   
     44. D(C   2,N   1,C   0,H   7)    180.0000         0.013902   
     45. D(C   2,N   1,C   0,H   9)    -60.0085         0.013902   
     46. D(H  10,N   1,C   0,H   8)   -177.9908         0.013902   
     47. D(H  11,N   1,C   0,H   9)    177.9908         0.013902   
     48. D(H  10,N   1,C   0,H   9)     61.9922         0.013902   
     49. D(H  12,C   2,N   1,H  10)    178.8240         0.011983   
     50. D(H  12,C   2,N   1,C   0)    -58.0215         0.011983   
     51. D(C   3,C   2,N   1,H  11)    -56.8455         0.011983   
     52. D(C   3,C   2,N   1,H  10)     56.8455         0.011983   
     53. D(H  12,C   2,N   1,H  11)     65.1330         0.011983   
     54. D(C   3,C   2,N   1,C   0)    180.0000         0.011983   
     55. D(H  13,C   2,N   1,H  11)   -178.8240         0.011983   
     56. D(H  13,C   2,N   1,H  10)    -65.1330         0.011983   
     57. D(H  13,C   2,N   1,C   0)     58.0215         0.011983   
     58. D(H  14,C   5,C   2,H  13)    -62.0745         0.001500   
     59. D(H  14,C   5,C   2,H  12)     62.0745         0.001500   
     60. D(H  14,C   5,C   2,N   1)    180.0000         0.001500   
     61. D(O   6,C   5,C   2,H  13)    117.9255         0.001500   
     62. D(O   6,C   5,C   2,H  12)   -117.9255         0.001500   
     63. D(O   6,C   5,C   2,N   1)      0.0000         0.001500   
    -----------------------------------------------------------------

Number of atoms                         .... 15
Number of degrees of freedom            .... 63

         *************************************************************
         *                GEOMETRY OPTIMIZATION CYCLE   1            *
         *************************************************************


           ************************************************************
           *        Program running with 8 parallel MPI-processes     *
           *              working on a common directory               *
           ************************************************************
           ************************************************************
           *              Shut down parallel processing               *
           ************************************************************


           ************************************************************
           *        Program running with 8 parallel MPI-processes     *
           *              working on a common directory               *
           ************************************************************
------------
SCF SETTINGS
------------
Hamiltonian:
 Density Functional     Method          .... DFT(GTOs)
 Exchange Functional    Exchange        .... PBE
   PBE kappa parameter  XKappa          ....  0.804000
 Correlation Functional Correlation     .... PBE
 LDA part of GGA corr.  LDAOpt          .... PW91-LDA
 Gradients option       PostSCFGGA      .... off
 Hybrid DFT is turned on
   Fraction HF Exchange ScalHFX         ....  0.250000
   Scaling of DF-GGA-X  ScalDFX         ....  0.750000
   Scaling of DF-GGA-C  ScalDFC         ....  1.000000
   Scaling of DF-LDA-C  ScalLDAC        ....  1.000000
   Perturbative correction              ....  0.000000
   NL short-range parameter             ....  6.900000


General Settings:
 Integral files         IntName         .... 5701_+
 Hartree-Fock type      HFTyp           .... RHF
 Total Charge           Charge          ....    1
 Multiplicity           Mult            ....    1
 Number of Electrons    NEL             ....   52
 Basis Dimension        Dim             ....  265
 Nuclear Repulsion      ENuc            ....    264.5481763655 Eh

 Symmetry handling      UseSym         .... ON
 Point group                           .... Cs
 Used point group                      .... Cs
 Number of irreps                      .... 2
   Irrep   A' has  175 symmetry adapted basis functions (ofs=   0)
   Irrep   A" has   90 symmetry adapted basis functions (ofs= 175)

Convergence Acceleration:
 DIIS                   CNVDIIS         .... on
   Start iteration      DIISMaxIt       ....    12
   Startup error        DIISStart       ....  0.200000
   # of expansion vecs  DIISMaxEq       ....     5
   Bias factor          DIISBfac        ....   1.050
   Max. coefficient     DIISMaxC        ....  10.000
 Newton-Raphson         CNVNR           .... off
 SOSCF                  CNVSOSCF        .... on
   Start iteration      SOSCFMaxIt      ....   150
   Startup grad/error   SOSCFStart      ....  0.003300
 Level Shifting         CNVShift        .... on
   Level shift para.    LevelShift      ....    0.2500
   Turn off err/grad.   ShiftErr        ....    0.0010
 Zerner damping         CNVZerner       .... off
 Static damping         CNVDamp         .... on
   Fraction old density DampFac         ....    0.7000
   Max. Damping (<1)    DampMax         ....    0.9800
   Min. Damping (>=0)   DampMin         ....    0.0000
   Turn off err/grad.   DampErr         ....    0.1000
 Fernandez-Rico         CNVRico         .... off

SCF Procedure:
 Maximum # iterations   MaxIter         ....   125
 SCF integral mode      SCFMode         .... Direct
   Integral package                     .... LIBINT
 Reset frequeny         DirectResetFreq ....    20
 Integral Threshold     Thresh          ....  2.500e-11 Eh
 Primitive CutOff       TCut            ....  2.500e-12 Eh

Convergence Tolerance:
 Convergence Check Mode ConvCheckMode   .... Total+1el-Energy
 Energy Change          TolE            ....  1.000e-08 Eh
 1-El. energy change                    ....  1.000e-05 Eh
 Orbital Gradient       TolG            ....  1.000e-05
 Orbital Rotation angle TolX            ....  1.000e-05
 DIIS Error             TolErr          ....  5.000e-07


Diagonalization of the overlap matrix:
Smallest eigenvalue                        ... 1.345e-05
Time for diagonalization                   ...    0.361 sec
Threshold for overlap eigenvalues          ... 1.000e-08
Number of eigenvalues below threshold      ... 0
Time for construction of square roots      ...    0.024 sec
Producing symmetrization matrix            ... done (   0.030 sec)
Total time needed                          ...    0.416 sec

-------------------
DFT GRID GENERATION
-------------------

General Integration Accuracy     IntAcc      ...  4.340
Radial Grid Type                 RadialGrid  ... Gauss-Chebyshev
Angular Grid (max. acc.)         AngularGrid ... Lebedev-194
Angular grid pruning method      GridPruning ... 3 (G Style)
Weight generation scheme         WeightScheme... Becke
Basis function cutoff            BFCut       ...    1.0000e-11
Integration weight cutoff        WCut        ...    1.0000e-14
Grids for H and He will be reduced by one unit

# of grid points (after initial pruning)     ...  35302 (   0.0 sec)
# of grid points (after weights+screening)   ...  32964 (   0.1 sec)
nearest neighbour list constructed           ...    0.0 sec
Grid point re-assignment to atoms done       ...    0.0 sec
Grid point division into batches done        ...    0.1 sec
Reduced shell lists constructed in    0.1 sec

Total number of grid points                  ...    32964
Total number of batches                      ...      523
Average number of points per batch           ...       63
Average number of grid points per atom       ...     2198
Average number of shells per batch           ...    79.28 (72.74%)
Average number of basis functions per batch  ...   190.78 (71.99%)
Average number of large shells per batch     ...    65.94 (83.17%)
Average number of large basis fcns per batch ...   158.99 (83.34%)
Maximum spatial batch extension              ...   2.29,  2.43,  1.98 au
Average spatial batch extension              ...   0.14,  0.15,  0.14 au

Time for grid setup =    0.900 sec

Loading Hartree-Fock densities                     ... done
Calculating cut-offs                               ... done
Setting up the integral package                    ... done
Initializing the effective Hamiltonian             ... done
Starting the Coulomb interaction                   ... done (   0.0 sec)
Reading the grid                                   ... done
Mapping shells                                     ... done
Starting the XC term evaluation                    ... done (   0.6 sec)
  promolecular density results
     # of electrons  =     52.994445924
     EX              =    -42.596134357
     EC              =     -1.730835123
     EX+EC           =    -44.326969480
done (   0.0 sec)
Diagonalizing the Hamiltonian                      ... done (   0.0 sec)
Back transforming the eigenvectors                 ... done (   0.0 sec)
Now organizing SCF variables                       ... done
The symmetry of the initial guess is 1-A'
Irrep occupations for operator 0
    A' -   21
    A" -    5
--------------
SCF ITERATIONS
--------------
ITER       Energy         Delta-E        Max-DP      RMS-DP      [F,P]     Damp
               ***  Starting incremental Fock matrix formation  ***
  0   -324.5611785026   0.000000000000 1.03460027  0.01133953  0.2743426 0.7000
  1   -324.6178626696  -0.056684167056 0.15235011  0.00163766  0.0536634 0.7000
                               ***Turning on DIIS***
  2   -324.6510808619  -0.033218192315 0.44990010  0.00462624  0.0295388 0.0000
  3   -324.7196806791  -0.068599817203 0.11602221  0.00139129  0.0177480 0.0000
  4   -324.7219170450  -0.002236365903 0.01021851  0.00013373  0.0048664 0.0000
                      *** Initiating the SOSCF procedure ***
                           *** Shutting down DIIS ***
                      *** Re-Reading the Fockian *** 
                      *** Removing any level shift *** 
ITER      Energy       Delta-E        Grad      Rot      Max-DP    RMS-DP
  5   -324.72205132  -0.0001342722  0.000262  0.000262  0.003160  0.000034
               *** Restarting incremental Fock matrix formation ***
  6   -324.72206064  -0.0000093207  0.000152  0.001569  0.017339  0.000201
  7   -324.72204341   0.0000172270  0.001393  0.002386  0.007041  0.000091
  8   -324.72205826  -0.0000148476  0.000498  0.003786  0.032706  0.000400
  9   -324.72201826   0.0000399941  0.002046  0.006845  0.014204  0.000182
 10   -324.72203295  -0.0000146813  0.001656  0.006918  0.076814  0.000934
 11   -324.72181266   0.0002202900  0.003022  0.006101  0.060886  0.000742
 12   -324.72206006  -0.0002474028  0.000281  0.003579  0.020777  0.000248
 13   -324.72204609   0.0000139639  0.000829  0.003618  0.013381  0.000179
 14   -324.72206127  -0.0000151750  0.000198  0.002553  0.012516  0.000141
 15   -324.72205732   0.0000039519  0.000577  0.001878  0.009174  0.000103
 16   -324.72206182  -0.0000044999  0.000061  0.001145  0.004754  0.000059
 17   -324.72206130   0.0000005214  0.000218  0.000931  0.004220  0.000051
 18   -324.72206186  -0.0000005655  0.000009  0.000129  0.000408  0.000008
 19   -324.72206183   0.0000000284  0.000025  0.000122  0.000547  0.000006
 20   -324.72206187  -0.0000000360  0.000006  0.000098  0.000355  0.000005
 21   -324.72206186   0.0000000044  0.000015  0.000077  0.000217  0.000003
                  ***Gradient check signals convergence***
              ***Rediagonalizing the Fockian in SOSCF/NRSCF***

               *****************************************************
               *                     SUCCESS                       *
               *           SCF CONVERGED AFTER  22 CYCLES          *
               *****************************************************

Setting up the final grid:

General Integration Accuracy     IntAcc      ...  5.010
Radial Grid Type                 RadialGrid  ... Gauss-Chebyshev
Angular Grid (max. acc.)         AngularGrid ... Lebedev-434
Angular grid pruning method      GridPruning ... 3 (G Style)
Weight generation scheme         WeightScheme... Becke
Basis function cutoff            BFCut       ...    1.0000e-11
Integration weight cutoff        WCut        ...    1.0000e-14
Grids for H and He will be reduced by one unit

# of grid points (after initial pruning)     ... 128458 (   0.0 sec)
# of grid points (after weights+screening)   ... 118864 (   3.3 sec)
nearest neighbour list constructed           ...    0.0 sec
Grid point re-assignment to atoms done       ...    0.0 sec
Grid point division into batches done        ...    1.2 sec
Reduced shell lists constructed in    1.4 sec

Total number of grid points                  ...   118864
Total number of batches                      ...     1864
Average number of points per batch           ...       63
Average number of grid points per atom       ...     7924
Average number of shells per batch           ...    78.98 (72.46%)
Average number of basis functions per batch  ...   190.20 (71.77%)
Average number of large shells per batch     ...    65.29 (82.67%)
Average number of large basis fcns per batch ...   157.32 (82.71%)
Maximum spatial batch extension              ...   1.84,  1.68,  1.74 au
Average spatial batch extension              ...   0.09,  0.09,  0.09 au

Final grid set up in    5.6 sec
Final integration                            ... done (   0.9 sec)
Change in XC energy                          ...     0.000321170
Integrated number of electrons               ...    51.999976154
Previous integrated no of electrons          ...    51.999493810
Total Energy       :         -324.72174070 Eh           -8836.12778 eV
  Last Energy change         ...   -5.6839e-09  Tolerance :   1.0000e-08
  Last MAX-Density change    ...    3.6164e-04  Tolerance :   1.0000e-07
             **** THE GBW FILE WAS UPDATED (5701_+.gbw) ****
             **** DENSITY FILE WAS UPDATED (5701_+.scfp.tmp) ****
             **** ENERGY FILE WAS UPDATED (5701_+.en.tmp) ****
Total SCF time: 0 days 0 hours 2 min 15 sec 
           ************************************************************
           *              Shut down parallel processing               *
           ************************************************************

-------------------------   --------------------
FINAL SINGLE POINT ENERGY      -324.721740700698
-------------------------   --------------------



           ************************************************************
           *        Program running with 8 parallel MPI-processes     *
           *              working on a common directory               *
           ************************************************************
------------------------------------------------------------------------------
                         ORCA SCF GRADIENT CALCULATION
------------------------------------------------------------------------------

Gradient of the Kohn-Sham DFT energy:
Kohn-Sham wavefunction type      ... RKS
Hartree-Fock exchange scaling    ...    0.250
Number of operators              ...    1
Number of atoms                  ...   15
Basis set dimensions             ...  265
Integral neglect threshold       ... 2.5e-11
Integral primitive cutoff        ... 2.5e-12

Nuclear repulsion gradient       ... done
One Electron Gradient            ... done
Pre-screening matrix             ... done
Starting the two electron gradient:
Two electron gradient done
Exchange-correlation gradient    ... done

------------------
CARTESIAN GRADIENT
------------------

   1   C   :    0.000184801    0.000125382    0.000000000
   2   N   :   -0.000061506    0.000097605   -0.000000001
   3   C   :   -0.000012241   -0.000109103    0.000000000
   4   C   :   -0.000102146   -0.000064433   -0.000000000
   5   C   :    0.000078171    0.000039840    0.000000000
   6   C   :   -0.000062707   -0.000030928    0.000000000
   7   O   :    0.000055265    0.000008269   -0.000000000
   8   H   :   -0.000015164   -0.000082913    0.000000001
   9   H   :   -0.000024655   -0.000016522    0.000005159
  10   H   :   -0.000024656   -0.000016522   -0.000005159
  11   H   :   -0.000014907   -0.000024669   -0.000002566
  12   H   :   -0.000014911   -0.000024666    0.000002566
  13   H   :    0.000001907    0.000021837   -0.000000137
  14   H   :    0.000001908    0.000021836    0.000000137
  15   H   :    0.000010841    0.000054988   -0.000000000

Norm of the cartesian gradient     ...    0.000346737
RMS gradient                       ...    0.000051688
MAX gradient                       ...    0.000184801

-------
TIMINGS
-------

Total SCF gradient time            ...       43.434 sec

One electron gradient       ....       0.131 sec  (  0.3%)
Prescreening matrices       ....       0.585 sec  (  1.3%)
Two electron gradient       ....      14.902 sec  ( 34.3%)
XC gradient                 ....       2.428 sec  (  5.6%)
           ************************************************************
           *              Shut down parallel processing               *
           ************************************************************
------------------------------------------------------------------------------
                         ORCA GEOMETRY RELAXATION STEP
------------------------------------------------------------------------------

Reading the OPT-File                    .... done
Getting information on internals        .... done
Copying old internal coords+grads       .... done
Making the new internal coordinates     .... (new redundants).... done
Validating the new internal coordinates .... (new redundants).... done
Calculating the B-matrix                .... done
Calculating the G,G- and P matrices     .... done
Transforming gradient to internals      .... done
Projecting the internal gradient        .... done
Number of atoms                         ....  15
Number of internal coordinates          ....  63
Current Energy                          ....  -324.721740701 Eh
Current gradient norm                   ....     0.000346737 Eh/bohr
Maximum allowed component of the step   ....  0.300
Current trust radius                    ....  0.300
Evaluating the initial hessian          ....  (Almloef) done
Projecting the Hessian                  .... done
Forming the augmented Hessian           .... done
Diagonalizing the augmented Hessian     .... done
Last element of RFO vector              ....  0.999999190
Lowest eigenvalues of augmented Hessian:
 -0.000000379  0.001500000  0.001500000  0.011983344  0.013902474
Length of the computed step             ....  0.001272522
The final length of the internal step   ....  0.001272522
Converting the step to cartesian space:
 Initial RMS(Int)=    0.0001603228
Transforming coordinates:
 Iter   0:  RMS(Cart)=    0.0010316653 RMS(Int)=    1.1195012804
 Iter   1:  RMS(Cart)=    0.0000004067 RMS(Int)=    0.0000001810
 Iter   2:  RMS(Cart)=    0.0000000002 RMS(Int)=    0.0000000001
done
Storing new coordinates                 .... done

                                .--------------------.
          ----------------------|Geometry convergence|---------------------
          Item                value                 Tolerance   Converged
          -----------------------------------------------------------------
          RMS gradient        0.00004451            0.00003000      NO
          MAX gradient        0.00018969            0.00010000      NO
          RMS step            0.00016032            0.00060000      YES
          MAX step            0.00052728            0.00100000      YES
          ....................................................
          Max(Bonds)      0.0002      Max(Angles)    0.03
          Max(Dihed)        0.02      Max(Improp)    0.00
          -----------------------------------------------------------------

The optimization has not yet converged - more geometry cycles are needed


    ---------------------------------------------------------------------------
                         Redundant Internal Coordinates
                            (Angstroem and degrees)

        Definition                    Value    dE/dq     Step     New-Value
    ----------------------------------------------------------------------------
     1. B(N   1,C   0)                1.4884 -0.000114  0.0002    1.4885   
     2. B(C   2,N   1)                1.5093  0.000053 -0.0001    1.5092   
     3. B(C   3,C   2)                1.4411 -0.000021  0.0000    1.4411   
     4. B(C   4,C   3)                1.2034  0.000072 -0.0000    1.2033   
     5. B(C   5,C   4)                1.4588 -0.000000 -0.0000    1.4588   
     6. B(O   6,C   5)                1.1979  0.000039 -0.0000    1.1979   
     7. B(H   7,C   0)                1.0883 -0.000082  0.0001    1.0884   
     8. B(H   8,C   0)                1.0883  0.000021 -0.0000    1.0883   
     9. B(H   9,C   0)                1.0883  0.000021 -0.0000    1.0883   
    10. B(H  10,N   1)                1.0231 -0.000014  0.0000    1.0231   
    11. B(H  11,N   1)                1.0231 -0.000014  0.0000    1.0231   
    12. B(H  12,C   2)                1.0929 -0.000009  0.0000    1.0929   
    13. B(H  13,C   2)                1.0929 -0.000009  0.0000    1.0929   
    14. B(H  14,C   5)                1.1025 -0.000048  0.0001    1.1026   
    15. A(N   1,C   0,H   8)          108.74  0.000010   -0.00    108.74   
    16. A(H   7,C   0,H   8)          110.13 -0.000013    0.00    110.13   
    17. A(H   7,C   0,H   9)          110.13 -0.000013    0.00    110.13   
    18. A(N   1,C   0,H   7)          108.86  0.000030   -0.01    108.85   
    19. A(N   1,C   0,H   9)          108.74  0.000010   -0.00    108.74   
    20. A(H   8,C   0,H   9)          110.20 -0.000023    0.01    110.21   
    21. A(C   0,N   1,H  10)          110.21 -0.000017    0.00    110.21   
    22. A(C   0,N   1,C   2)          114.36  0.000067   -0.01    114.35   
    23. A(C   2,N   1,H  10)          108.09 -0.000029    0.01    108.10   
    24. A(H  10,N   1,H  11)          105.47  0.000021   -0.00    105.46   
    25. A(C   2,N   1,H  11)          108.09 -0.000029    0.01    108.10   
    26. A(C   0,N   1,H  11)          110.21 -0.000017    0.00    110.21   
    27. A(C   3,C   2,H  13)          112.06  0.000032   -0.01    112.05   
    28. A(C   3,C   2,H  12)          112.06  0.000032   -0.01    112.05   
    29. A(N   1,C   2,C   3)          109.89 -0.000139    0.03    109.92   
    30. A(N   1,C   2,H  12)          107.15  0.000059   -0.00    107.15   
    31. A(H  12,C   2,H  13)          108.30 -0.000039   -0.01    108.29   
    32. A(N   1,C   2,H  13)          107.15  0.000059   -0.00    107.15   
    33. L(C   2,C   3,C   4,N   1, 1) 176.27 -0.000190    0.03    176.30   
    34. L(C   2,C   3,C   4,N   1, 2) 180.00  0.000000   -0.00    180.00   
    35. L(C   3,C   4,C   5,O   6, 2) 180.00  0.000000   -0.00    180.00   
    36. L(C   3,C   4,C   5,O   6, 1) 178.55 -0.000030    0.01    178.56   
    37. A(C   4,C   5,O   6)          120.83  0.000040   -0.01    120.83   
    38. A(O   6,C   5,H  14)          123.55 -0.000050    0.01    123.56   
    39. A(C   4,C   5,H  14)          115.62  0.000010   -0.00    115.62   
    40. D(H  11,N   1,C   0,H   7)     58.00  0.000003   -0.00     58.00   
    41. D(C   2,N   1,C   0,H   8)     60.01 -0.000008    0.00     60.01   
    42. D(H  10,N   1,C   0,H   7)    -58.00 -0.000003    0.00    -58.00   
    43. D(H  11,N   1,C   0,H   8)    -61.99 -0.000005    0.00    -61.99   
    44. D(C   2,N   1,C   0,H   7)    180.00 -0.000000    0.00    180.00   
    45. D(C   2,N   1,C   0,H   9)    -60.01  0.000008   -0.00    -60.01   
    46. D(H  10,N   1,C   0,H   8)   -177.99 -0.000011    0.01   -177.99   
    47. D(H  11,N   1,C   0,H   9)    177.99  0.000011   -0.01    177.99   
    48. D(H  10,N   1,C   0,H   9)     61.99  0.000005   -0.00     61.99   
    49. D(H  12,C   2,N   1,H  10)    178.82 -0.000008    0.01    178.83   
    50. D(H  12,C   2,N   1,C   0)    -58.02 -0.000006    0.01    -58.01   
    51. D(C   3,C   2,N   1,H  11)    -56.85  0.000002   -0.00    -56.85   
    52. D(C   3,C   2,N   1,H  10)     56.85 -0.000002    0.00     56.85   
    53. D(H  12,C   2,N   1,H  11)     65.13 -0.000005    0.01     65.14   
    54. D(C   3,C   2,N   1,C   0)    180.00  0.000000    0.00    180.00   
    55. D(H  13,C   2,N   1,H  11)   -178.82  0.000008   -0.01   -178.83   
    56. D(H  13,C   2,N   1,H  10)    -65.13  0.000005   -0.01    -65.14   
    57. D(H  13,C   2,N   1,C   0)     58.02  0.000006   -0.01     58.01   
    58. D(H  14,C   5,C   2,H  13)    -62.07 -0.000051    0.02    -62.05   
    59. D(H  14,C   5,C   2,H  12)     62.07  0.000051   -0.02     62.05   
    60. D(H  14,C   5,C   2,N   1)    180.00  0.000000   -0.00    180.00   
    61. D(O   6,C   5,C   2,H  13)    117.93 -0.000051    0.02    117.95   
    62. D(O   6,C   5,C   2,H  12)   -117.93  0.000051   -0.02   -117.95   
    63. D(O   6,C   5,C   2,N   1)      0.00  0.000000    0.00      0.00   
    ----------------------------------------------------------------------------

         *************************************************************
         *                GEOMETRY OPTIMIZATION CYCLE   2            *
         *************************************************************
---------------------------------
CARTESIAN COORDINATES (ANGSTROEM)
---------------------------------
  C     -3.194752    1.423616    0.000000
  N     -1.755180    1.044980   -0.000000
  C     -1.503117   -0.442994   -0.000000
  C     -0.085264   -0.700851   -0.000000
  C      1.110086   -0.839222   -0.000000
  C      2.562934   -0.970415   -0.000000
  O      3.266802   -0.001168    0.000000
  H     -3.272836    2.509221    0.000000
  H     -3.663934    1.014404    0.892621
  H     -3.663934    1.014404   -0.892621
  H     -1.283872    1.447114   -0.814168
  H     -1.283872    1.447114    0.814168
  H     -1.994723   -0.853107    0.885809
  H     -1.994723   -0.853107   -0.885809
  H      2.948254   -2.003448    0.000000

----------------------------
CARTESIAN COORDINATES (A.U.)
----------------------------
  NO LB      ZA    FRAG    MASS        X           Y           Z
   0 C     6.0000    0    12.011         -6.037205807995095          2.690243898610150          0.000000034490447
   1 N     7.0000    0    14.007         -3.316808915891884          1.974726586953153         -0.000000017863981
   2 C     6.0000    0    12.011         -2.840479255167697         -0.837137314325863         -0.000000038658658
   3 C     6.0000    0    12.011         -0.161126122890548         -1.324417292920947         -0.000000045287010
   4 C     6.0000    0    12.011          2.097759028823417         -1.585899653544834         -0.000000048383688
   5 C     6.0000    0    12.011          4.843243700488579         -1.833819031843194         -0.000000047938960
   6 O     8.0000    0    15.999          6.173361294658015         -0.002207331879011          0.000000053597362
   7 H     1.0000    0     1.008         -6.184764164718389          4.741740044238065          0.000000007315015
   8 H     1.0000    0     1.008         -6.923832640587730          1.916946224790378          1.686808551825740
   9 H     1.0000    0     1.008         -6.923832702304789          1.916946183834454         -1.686808429643005
  10 H     1.0000    0     1.008         -2.426166442629041          2.734648283126607         -1.538555412057585
  11 H     1.0000    0     1.008         -2.426166353942639          2.734648264327262          1.538555337633623
  12 H     1.0000    0     1.008         -3.769479617645671         -1.612137962708532          1.673936526978635
  13 H     1.0000    0     1.008         -3.769479636248896         -1.612137942999609         -1.673936603037761
  14 H     1.0000    0     1.008          5.571391786431297         -3.785968823701673          0.000000131029824

--------------------------------
INTERNAL COORDINATES (ANGSTROEM)
--------------------------------
 C      0   0   0   0.000000     0.000     0.000
 N      1   0   0   1.488534     0.000     0.000
 C      2   1   0   1.509173   114.351     0.000
 C      3   2   1   1.441109   109.922   180.000
 C      4   3   2   1.203333   176.296     0.000
 C      5   4   3   1.458759   178.557     0.000
 O      6   5   4   1.197861   120.827     0.000
 H      1   2   3   1.088410   108.850   180.000
 H      1   2   3   1.088282   108.741    60.012
 H      1   2   3   1.088282   108.741   299.988
 H      2   1   3   1.023090   110.215   122.002
 H      2   1   3   1.023090   110.215   237.998
 H      3   2   1   1.092944   107.148   301.985
 H      3   2   1   1.092944   107.148    58.015
 H      6   5   4   1.102555   115.615   180.000

---------------------------
INTERNAL COORDINATES (A.U.)
---------------------------
 C      0   0   0   0.000000     0.000     0.000
 N      1   0   0   2.812921     0.000     0.000
 C      2   1   0   2.851924   114.351     0.000
 C      3   2   1   2.723302   109.922   180.000
 C      4   3   2   2.273969   176.296     0.000
 C      5   4   3   2.756656   178.557     0.000
 O      6   5   4   2.263629   120.827     0.000
 H      1   2   3   2.056796   108.850   180.000
 H      1   2   3   2.056555   108.741    60.012
 H      1   2   3   2.056555   108.741   299.988
 H      2   1   3   1.933359   110.215   122.002
 H      2   1   3   1.933359   110.215   237.998
 H      3   2   1   2.065365   107.148   301.985
 H      3   2   1   2.065365   107.148    58.015
 H      6   5   4   2.083528   115.615   180.000



           ************************************************************
           *        Program running with 8 parallel MPI-processes     *
           *              working on a common directory               *
           ************************************************************
           ************************************************************
           *              Shut down parallel processing               *
           ************************************************************


           ************************************************************
           *        Program running with 8 parallel MPI-processes     *
           *              working on a common directory               *
           ************************************************************

Diagonalization of the overlap matrix:
Smallest eigenvalue                        ... 1.345e-05
Time for diagonalization                   ...    0.355 sec
Threshold for overlap eigenvalues          ... 1.000e-08
Number of eigenvalues below threshold      ... 0
Time for construction of square roots      ...    0.016 sec
Producing symmetrization matrix            ... done (   0.024 sec)
Total time needed                          ...    0.396 sec

Warning: Geometry matches/Basis set matches and symmetry is to be used
         We proceed in good trust that the input orbitals and irreps are correct
Irrep occupations for operator 0
    A' -   21
    A" -    5
-------------------
DFT GRID GENERATION
-------------------

General Integration Accuracy     IntAcc      ...  4.340
Radial Grid Type                 RadialGrid  ... Gauss-Chebyshev
Angular Grid (max. acc.)         AngularGrid ... Lebedev-194
Angular grid pruning method      GridPruning ... 3 (G Style)
Weight generation scheme         WeightScheme... Becke
Basis function cutoff            BFCut       ...    1.0000e-11
Integration weight cutoff        WCut        ...    1.0000e-14
Grids for H and He will be reduced by one unit

# of grid points (after initial pruning)     ...  35302 (   0.0 sec)
# of grid points (after weights+screening)   ...  32962 (   0.2 sec)
nearest neighbour list constructed           ...    0.0 sec
Grid point re-assignment to atoms done       ...    0.0 sec
Grid point division into batches done        ...    0.1 sec
Reduced shell lists constructed in    0.2 sec

Total number of grid points                  ...    32962
Total number of batches                      ...      523
Average number of points per batch           ...       63
Average number of grid points per atom       ...     2197
Average number of shells per batch           ...    79.21 (72.67%)
Average number of basis functions per batch  ...   190.49 (71.88%)
Average number of large shells per batch     ...    65.96 (83.27%)
Average number of large basis fcns per batch ...   159.03 (83.48%)
Maximum spatial batch extension              ...   2.29,  2.43,  1.98 au
Average spatial batch extension              ...   0.14,  0.14,  0.14 au

Time for grid setup =    0.732 sec

--------------
SCF ITERATIONS
--------------
ITER       Energy         Delta-E        Max-DP      RMS-DP      [F,P]     Damp
               ***  Starting incremental Fock matrix formation  ***
                      *** Initiating the SOSCF procedure ***
                      *** Re-Reading the Fockian *** 
                      *** Removing any level shift *** 
ITER      Energy       Delta-E        Grad      Rot      Max-DP    RMS-DP
  0   -324.72206106 -324.7220610568  0.000226  0.000226  0.000295  0.000008
               *** Restarting incremental Fock matrix formation ***
  1   -324.72206200  -0.0000009435  0.000065  0.000676  0.002147  0.000025
  2   -324.72206064   0.0000013626  0.000474  0.000774  0.001754  0.000022
  3   -324.72206199  -0.0000013508  0.000070  0.000918  0.001154  0.000017
  4   -324.72205822   0.0000037668  0.000548  0.000962  0.000624  0.000013
  5   -324.72206200  -0.0000037781  0.000041  0.000666  0.001004  0.000019
  6   -324.72206158   0.0000004220  0.000142  0.000580  0.000684  0.000014
  7   -324.72206203  -0.0000004510  0.000016  0.000196  0.001207  0.000015
  8   -324.72206197   0.0000000553  0.000048  0.000153  0.000539  0.000008
  9   -324.72206204  -0.0000000631  0.000010  0.000167  0.001090  0.000013
 10   -324.72206202   0.0000000164  0.000032  0.000142  0.000789  0.000010
 11   -324.72206204  -0.0000000182  0.000004  0.000049  0.000399  0.000004
 12   -324.72206204   0.0000000033  0.000008  0.000045  0.000271  0.000003
                  ***Gradient check signals convergence***
              ***Rediagonalizing the Fockian in SOSCF/NRSCF***

               *****************************************************
               *                     SUCCESS                       *
               *           SCF CONVERGED AFTER  13 CYCLES          *
               *****************************************************

Setting up the final grid:

General Integration Accuracy     IntAcc      ...  5.010
Radial Grid Type                 RadialGrid  ... Gauss-Chebyshev
Angular Grid (max. acc.)         AngularGrid ... Lebedev-434
Angular grid pruning method      GridPruning ... 3 (G Style)
Weight generation scheme         WeightScheme... Becke
Basis function cutoff            BFCut       ...    1.0000e-11
Integration weight cutoff        WCut        ...    1.0000e-14
Grids for H and He will be reduced by one unit

# of grid points (after initial pruning)     ... 128458 (   0.0 sec)
# of grid points (after weights+screening)   ... 118864 (   3.0 sec)
nearest neighbour list constructed           ...    0.0 sec
Grid point re-assignment to atoms done       ...    0.0 sec
Grid point division into batches done        ...    1.3 sec
Reduced shell lists constructed in    1.5 sec

Total number of grid points                  ...   118864
Total number of batches                      ...     1865
Average number of points per batch           ...       63
Average number of grid points per atom       ...     7924
Average number of shells per batch           ...    79.00 (72.48%)
Average number of basis functions per batch  ...   190.20 (71.77%)
Average number of large shells per batch     ...    65.33 (82.69%)
Average number of large basis fcns per batch ...   157.36 (82.73%)
Maximum spatial batch extension              ...   2.03,  1.89,  2.12 au
Average spatial batch extension              ...   0.09,  0.09,  0.09 au

Final grid set up in    5.8 sec
Final integration                            ... done (   1.1 sec)
Change in XC energy                          ...     0.000321045
Integrated number of electrons               ...    51.999976552
Previous integrated no of electrons          ...    51.999495724
Total Energy       :         -324.72174099 Eh           -8836.12779 eV
  Last Energy change         ...   -3.4489e-09  Tolerance :   1.0000e-08
  Last MAX-Density change    ...    9.5529e-05  Tolerance :   1.0000e-07
             **** THE GBW FILE WAS UPDATED (5701_+.gbw) ****
             **** DENSITY FILE WAS UPDATED (5701_+.scfp.tmp) ****
             **** ENERGY FILE WAS UPDATED (5701_+.en.tmp) ****
Total SCF time: 0 days 0 hours 1 min 24 sec 
           ************************************************************
           *              Shut down parallel processing               *
           ************************************************************

-------------------------   --------------------
FINAL SINGLE POINT ENERGY      -324.721740993311
-------------------------   --------------------



           ************************************************************
           *        Program running with 8 parallel MPI-processes     *
           *              working on a common directory               *
           ************************************************************
------------------------------------------------------------------------------
                         ORCA SCF GRADIENT CALCULATION
------------------------------------------------------------------------------

Gradient of the Kohn-Sham DFT energy:
Kohn-Sham wavefunction type      ... RKS
Hartree-Fock exchange scaling    ...    0.250
Number of operators              ...    1
Number of atoms                  ...   15
Basis set dimensions             ...  265
Integral neglect threshold       ... 2.5e-11
Integral primitive cutoff        ... 2.5e-12

Nuclear repulsion gradient       ... done
One Electron Gradient            ... done
Pre-screening matrix             ... done
Starting the two electron gradient:
Two electron gradient done
Exchange-correlation gradient    ... done

------------------
CARTESIAN GRADIENT
------------------

   1   C   :    0.000089331    0.000024436    0.000000004
   2   N   :   -0.000046511    0.000067911    0.000000001
   3   C   :    0.000005153   -0.000033887   -0.000000002
   4   C   :   -0.000017057   -0.000111043    0.000000003
   5   C   :    0.000023081    0.000061193    0.000000002
   6   C   :   -0.000041747   -0.000001112   -0.000000062
   7   O   :    0.000020622    0.000003426    0.000000045
   8   H   :   -0.000014977   -0.000003783   -0.000000002
   9   H   :   -0.000017813   -0.000005610   -0.000007321
  10   H   :   -0.000017822   -0.000005612    0.000007324
  11   H   :    0.000002442   -0.000017425   -0.000006434
  12   H   :    0.000002452   -0.000017427    0.000006430
  13   H   :   -0.000001988    0.000013835    0.000000281
  14   H   :   -0.000001991    0.000013837   -0.000000281
  15   H   :    0.000016825    0.000011260    0.000000014

Norm of the cartesian gradient     ...    0.000195330
RMS gradient                       ...    0.000029118
MAX gradient                       ...    0.000111043

-------
TIMINGS
-------

Total SCF gradient time            ...       38.734 sec

One electron gradient       ....       0.141 sec  (  0.4%)
Prescreening matrices       ....       0.725 sec  (  1.9%)
Two electron gradient       ....      14.880 sec  ( 38.4%)
XC gradient                 ....       2.388 sec  (  6.2%)
           ************************************************************
           *              Shut down parallel processing               *
           ************************************************************
------------------------------------------------------------------------------
                         ORCA GEOMETRY RELAXATION STEP
------------------------------------------------------------------------------

Reading the OPT-File                    .... done
Getting information on internals        .... done
Copying old internal coords+grads       .... done
Making the new internal coordinates     .... (new redundants).... done
Validating the new internal coordinates .... (new redundants).... done
Calculating the B-matrix                .... done
Calculating the G,G- and P matrices     .... done
Transforming gradient to internals      .... done
Projecting the internal gradient        .... done
Number of atoms                         ....  15
Number of internal coordinates          ....  63
Current Energy                          ....  -324.721740993 Eh
Current gradient norm                   ....     0.000195330 Eh/bohr
Maximum allowed component of the step   ....  0.300
Current trust radius                    ....  0.300
Updating the Hessian (BFGS)             .... done
Forming the augmented Hessian           .... done
Diagonalizing the augmented Hessian     .... done
Last element of RFO vector              ....  0.999996927
Lowest eigenvalues of augmented Hessian:
 -0.000000482  0.001500000  0.001500000  0.011983343  0.013902474
Length of the computed step             ....  0.002479088
The final length of the internal step   ....  0.002479088
Converting the step to cartesian space:
 Initial RMS(Int)=    0.0003123358
Transforming coordinates:
 Iter   0:  RMS(Cart)=    0.0020918537 RMS(Int)=    1.3711022829
 Iter   1:  RMS(Cart)=    0.0000017530 RMS(Int)=    0.0000008012
 Iter   2:  RMS(Cart)=    0.0000000019 RMS(Int)=    0.0000000011
done
Storing new coordinates                 .... done

                                .--------------------.
          ----------------------|Geometry convergence|---------------------
          Item                value                 Tolerance   Converged
          -----------------------------------------------------------------
          Energy change      -0.00000029            0.00000100      YES
          RMS gradient        0.00002921            0.00003000      YES
          MAX gradient        0.00017973            0.00010000      NO
          RMS step            0.00031234            0.00060000      YES
          MAX step            0.00131238            0.00100000      NO
          ....................................................
          Max(Bonds)      0.0002      Max(Angles)    0.08
          Max(Dihed)        0.05      Max(Improp)    0.00
          -----------------------------------------------------------------

The optimization has not yet converged - more geometry cycles are needed


    ---------------------------------------------------------------------------
                         Redundant Internal Coordinates
                            (Angstroem and degrees)

        Definition                    Value    dE/dq     Step     New-Value
    ----------------------------------------------------------------------------
     1. B(N   1,C   0)                1.4885 -0.000035  0.0002    1.4887   
     2. B(C   2,N   1)                1.5092  0.000043 -0.0002    1.5090   
     3. B(C   3,C   2)                1.4411  0.000008 -0.0000    1.4411   
     4. B(C   4,C   3)                1.2033  0.000010 -0.0000    1.2033   
     5. B(C   5,C   4)                1.4588 -0.000006  0.0000    1.4588   
     6. B(O   6,C   5)                1.1979  0.000015 -0.0000    1.1978   
     7. B(H   7,C   0)                1.0884 -0.000003  0.0001    1.0885   
     8. B(H   8,C   0)                1.0883  0.000004 -0.0000    1.0883   
     9. B(H   9,C   0)                1.0883  0.000004 -0.0000    1.0883   
    10. B(H  10,N   1)                1.0231 -0.000001  0.0000    1.0231   
    11. B(H  11,N   1)                1.0231 -0.000001  0.0000    1.0231   
    12. B(H  12,C   2)                1.0929 -0.000004  0.0000    1.0930   
    13. B(H  13,C   2)                1.0929 -0.000004  0.0000    1.0930   
    14. B(H  14,C   5)                1.1026 -0.000005  0.0001    1.1026   
    15. A(N   1,C   0,H   8)          108.74  0.000015   -0.01    108.74   
    16. A(H   7,C   0,H   8)          110.13 -0.000012    0.00    110.13   
    17. A(H   7,C   0,H   9)          110.13 -0.000012    0.00    110.13   
    18. A(N   1,C   0,H   7)          108.85  0.000019   -0.01    108.84   
    19. A(N   1,C   0,H   9)          108.74  0.000015   -0.01    108.74   
    20. A(H   8,C   0,H   9)          110.21 -0.000023    0.02    110.23   
    21. A(C   0,N   1,H  10)          110.21 -0.000005    0.00    110.21   
    22. A(C   0,N   1,C   2)          114.35  0.000043   -0.02    114.33   
    23. A(C   2,N   1,H  10)          108.10 -0.000023    0.01    108.11   
    24. A(H  10,N   1,H  11)          105.46  0.000012   -0.01    105.45   
    25. A(C   2,N   1,H  11)          108.10 -0.000023    0.01    108.11   
    26. A(C   0,N   1,H  11)          110.21 -0.000005    0.00    110.21   
    27. A(C   3,C   2,H  13)          112.05  0.000009   -0.01    112.03   
    28. A(C   3,C   2,H  12)          112.05  0.000009   -0.01    112.03   
    29. A(N   1,C   2,C   3)          109.92 -0.000054    0.05    109.97   
    30. A(N   1,C   2,H  12)          107.15  0.000034    0.00    107.15   
    31. A(H  12,C   2,H  13)          108.29 -0.000029   -0.02    108.27   
    32. A(N   1,C   2,H  13)          107.15  0.000034    0.00    107.15   
    33. L(C   2,C   3,C   4,N   1, 1) 176.30 -0.000180    0.08    176.37   
    34. L(C   2,C   3,C   4,N   1, 2) 180.00 -0.000000    0.00    180.00   
    35. L(C   3,C   4,C   5,O   6, 2) 180.00 -0.000000    0.00    180.00   
    36. L(C   3,C   4,C   5,O   6, 1) 178.56 -0.000023    0.02    178.57   
    37. A(C   4,C   5,O   6)          120.83  0.000009   -0.00    120.82   
    38. A(O   6,C   5,H  14)          123.56 -0.000025    0.01    123.57   
    39. A(C   4,C   5,H  14)          115.62  0.000016   -0.01    115.61   
    40. D(H  11,N   1,C   0,H   7)     58.00  0.000004   -0.00     57.99   
    41. D(C   2,N   1,C   0,H   8)     60.01 -0.000005    0.01     60.02   
    42. D(H  10,N   1,C   0,H   7)    -58.00 -0.000004    0.00    -57.99   
    43. D(H  11,N   1,C   0,H   8)    -61.99 -0.000001    0.00    -61.99   
    44. D(C   2,N   1,C   0,H   7)   -180.00  0.000000   -0.00   -180.00   
    45. D(C   2,N   1,C   0,H   9)    -60.01  0.000005   -0.01    -60.02   
    46. D(H  10,N   1,C   0,H   8)   -177.99 -0.000009    0.01   -177.97   
    47. D(H  11,N   1,C   0,H   9)    177.99  0.000009   -0.01    177.97   
    48. D(H  10,N   1,C   0,H   9)     61.99  0.000001   -0.00     61.99   
    49. D(H  12,C   2,N   1,H  10)    178.83 -0.000004    0.01    178.84   
    50. D(H  12,C   2,N   1,C   0)    -58.01  0.000000    0.01    -58.01   
    51. D(C   3,C   2,N   1,H  11)    -56.85  0.000005   -0.00    -56.85   
    52. D(C   3,C   2,N   1,H  10)     56.85 -0.000005    0.00     56.85   
    53. D(H  12,C   2,N   1,H  11)     65.14  0.000005    0.01     65.15   
    54. D(C   3,C   2,N   1,C   0)   -180.00  0.000000   -0.00   -180.00   
    55. D(H  13,C   2,N   1,H  11)   -178.83  0.000004   -0.01   -178.84   
    56. D(H  13,C   2,N   1,H  10)    -65.14 -0.000005   -0.01    -65.15   
    57. D(H  13,C   2,N   1,C   0)     58.01 -0.000000   -0.01     58.01   
    58. D(H  14,C   5,C   2,H  13)    -62.05 -0.000036    0.04    -62.01   
    59. D(H  14,C   5,C   2,H  12)     62.05  0.000036   -0.04     62.01   
    60. D(H  14,C   5,C   2,N   1)    180.00 -0.000000    0.00    180.00   
    61. D(O   6,C   5,C   2,H  13)    117.95 -0.000036    0.04    117.99   
    62. D(O   6,C   5,C   2,H  12)   -117.95  0.000036   -0.05   -117.99   
    63. D(O   6,C   5,C   2,N   1)      0.00  0.000000   -0.00     -0.00   
    ----------------------------------------------------------------------------

         *************************************************************
         *                GEOMETRY OPTIMIZATION CYCLE   3            *
         *************************************************************
---------------------------------
CARTESIAN COORDINATES (ANGSTROEM)
---------------------------------
  C     -3.195937    1.422779   -0.000003
  N     -1.755663    1.046089    0.000004
  C     -1.502132   -0.441448    0.000001
  C     -0.084238   -0.699025    0.000006
  C      1.110933   -0.838726    0.000010
  C      2.563612   -0.971938    0.000014
  O      3.268728   -0.003629   -0.000029
  H     -3.275266    2.508357    0.000000
  H     -3.664414    1.012999    0.892695
  H     -3.664405    1.013005   -0.892707
  H     -1.284886    1.448935   -0.814132
  H     -1.284894    1.448930    0.814146
  H     -1.993479   -0.852095    0.885732
  H     -1.993472   -0.852091   -0.885735
  H      2.947381   -2.005601   -0.000002

----------------------------
CARTESIAN COORDINATES (A.U.)
----------------------------
  NO LB      ZA    FRAG    MASS        X           Y           Z
   0 C     6.0000    0    12.011         -6.039444980022563          2.688662635598517         -0.000004846532317
   1 N     7.0000    0    14.007         -3.317722654222269          1.976821706244996          0.000006974638925
   2 C     6.0000    0    12.011         -2.838618024793274         -0.834215566730363          0.000002206881516
   3 C     6.0000    0    12.011         -0.159187123567739         -1.320965049756200          0.000011347967895
   4 C     6.0000    0    12.011          2.099359189452141         -1.584962866910017          0.000019356933291
   5 C     6.0000    0    12.011          4.844524176633949         -1.836696291317290          0.000026066140228
   6 O     8.0000    0    15.999          6.177000953066324         -0.006858214625501         -0.000055556241145
   7 H     1.0000    0     1.008         -6.189355025996447          4.740108402357634          0.000000531071676
   8 H     1.0000    0     1.008         -6.924739558540768          1.914291296655307          1.686948485119645
   9 H     1.0000    0     1.008         -6.924722010578170          1.914301420783582         -1.686972003820705
  10 H     1.0000    0     1.008         -2.428081730310390          2.738089408347955         -1.538486793602251
  11 H     1.0000    0     1.008         -2.428097139086107          2.738081393633873          1.538513628598127
  12 H     1.0000    0     1.008         -3.767128916938665         -1.610227132331584          1.673790223038315
  13 H     1.0000    0     1.008         -3.767115695515227         -1.610219483282328         -1.673796705880852
  14 H     1.0000    0     1.008          5.569742690798136         -3.790037526712173         -0.000002914312346

--------------------------------
INTERNAL COORDINATES (ANGSTROEM)
--------------------------------
 C      0   0   0   0.000000     0.000     0.000
 N      1   0   0   1.488719     0.000     0.000
 C      2   1   0   1.508988   114.329     0.000
 C      3   2   1   1.441100   109.969   180.000
 C      4   3   2   1.203308   176.371     0.000
 C      5   4   3   1.458774   178.572     0.000
 O      6   5   4   1.197836   120.822     0.000
 H      1   2   3   1.088473   108.836   180.000
 H      1   2   3   1.088255   108.735    60.020
 H      1   2   3   1.088255   108.735   299.980
 H      2   1   3   1.023100   110.215   122.006
 H      2   1   3   1.023100   110.215   237.994
 H      3   2   1   1.092965   107.148   301.995
 H      3   2   1   1.092965   107.148    58.005
 H      6   5   4   1.102606   115.608   180.003

---------------------------
INTERNAL COORDINATES (A.U.)
---------------------------
 C      0   0   0   0.000000     0.000     0.000
 N      1   0   0   2.813270     0.000     0.000
 C      2   1   0   2.851574   114.329     0.000
 C      3   2   1   2.723284   109.969   180.000
 C      4   3   2   2.273923   176.371     0.000
 C      5   4   3   2.756683   178.572     0.000
 O      6   5   4   2.263582   120.822     0.000
 H      1   2   3   2.056916   108.836   180.000
 H      1   2   3   2.056504   108.735    60.020
 H      1   2   3   2.056504   108.735   299.980
 H      2   1   3   1.933379   110.215   122.006
 H      2   1   3   1.933379   110.215   237.994
 H      3   2   1   2.065404   107.148   301.995
 H      3   2   1   2.065404   107.148    58.005
 H      6   5   4   2.083623   115.608   180.003



           ************************************************************
           *        Program running with 8 parallel MPI-processes     *
           *              working on a common directory               *
           ************************************************************
           ************************************************************
           *              Shut down parallel processing               *
           ************************************************************


           ************************************************************
           *        Program running with 8 parallel MPI-processes     *
           *              working on a common directory               *
           ************************************************************

Diagonalization of the overlap matrix:
Smallest eigenvalue                        ... 1.344e-05
Time for diagonalization                   ...    0.245 sec
Threshold for overlap eigenvalues          ... 1.000e-08
Number of eigenvalues below threshold      ... 0
Time for construction of square roots      ...    0.016 sec
Producing symmetrization matrix            ... done (   0.019 sec)
Total time needed                          ...    0.281 sec

Warning: Geometry matches/Basis set matches and symmetry is to be used
         We proceed in good trust that the input orbitals and irreps are correct
Irrep occupations for operator 0
    A' -   21
    A" -    5
-------------------
DFT GRID GENERATION
-------------------

General Integration Accuracy     IntAcc      ...  4.340
Radial Grid Type                 RadialGrid  ... Gauss-Chebyshev
Angular Grid (max. acc.)         AngularGrid ... Lebedev-194
Angular grid pruning method      GridPruning ... 3 (G Style)
Weight generation scheme         WeightScheme... Becke
Basis function cutoff            BFCut       ...    1.0000e-11
Integration weight cutoff        WCut        ...    1.0000e-14
Grids for H and He will be reduced by one unit

# of grid points (after initial pruning)     ...  35302 (   0.0 sec)
# of grid points (after weights+screening)   ...  32961 (   0.2 sec)
nearest neighbour list constructed           ...    0.0 sec
Grid point re-assignment to atoms done       ...    0.0 sec
Grid point division into batches done        ...    0.1 sec
Reduced shell lists constructed in    0.2 sec

Total number of grid points                  ...    32961
Total number of batches                      ...      522
Average number of points per batch           ...       63
Average number of grid points per atom       ...     2197
Average number of shells per batch           ...    79.31 (72.76%)
Average number of basis functions per batch  ...   190.84 (72.01%)
Average number of large shells per batch     ...    65.99 (83.20%)
Average number of large basis fcns per batch ...   159.12 (83.38%)
Maximum spatial batch extension              ...   2.29,  2.43,  1.98 au
Average spatial batch extension              ...   0.14,  0.14,  0.14 au

Time for grid setup =    0.668 sec

--------------
SCF ITERATIONS
--------------
ITER       Energy         Delta-E        Max-DP      RMS-DP      [F,P]     Damp
               ***  Starting incremental Fock matrix formation  ***
                      *** Initiating the SOSCF procedure ***
                      *** Re-Reading the Fockian *** 
                      *** Removing any level shift *** 
ITER      Energy       Delta-E        Grad      Rot      Max-DP    RMS-DP
  0   -324.72205757 -324.7220575724  0.000489  0.000489  0.000677  0.000019
               *** Restarting incremental Fock matrix formation ***
  1   -324.72206187  -0.0000042955  0.000147  0.001628  0.005156  0.000060
  2   -324.72205448   0.0000073871  0.001066  0.001877  0.004021  0.000051
  3   -324.72206173  -0.0000072476  0.000173  0.002206  0.004048  0.000050
  4   -324.72203743   0.0000242964  0.001522  0.002402  0.002390  0.000038
  5   -324.72206183  -0.0000243994  0.000104  0.001724  0.002470  0.000044
  6   -324.72205898   0.0000028489  0.000385  0.001526  0.001757  0.000034
  7   -324.72206201  -0.0000030322  0.000045  0.000556  0.002640  0.000033
  8   -324.72206172   0.0000002914  0.000138  0.000430  0.001023  0.000019
  9   -324.72206205  -0.0000003275  0.000021  0.000331  0.002546  0.000031
 10   -324.72206199   0.0000000614  0.000064  0.000289  0.001794  0.000022
 11   -324.72206206  -0.0000000678  0.000008  0.000090  0.001003  0.000010
 12   -324.72206204   0.0000000130  0.000015  0.000056  0.000855  0.000008
 13   -324.72206206  -0.0000000154  0.000003  0.000040  0.000207  0.000003
 14   -324.72206206   0.0000000009  0.000008  0.000031  0.000136  0.000002
                  ***Gradient check signals convergence***
              ***Rediagonalizing the Fockian in SOSCF/NRSCF***

               *****************************************************
               *                     SUCCESS                       *
               *           SCF CONVERGED AFTER  15 CYCLES          *
               *****************************************************

Setting up the final grid:

General Integration Accuracy     IntAcc      ...  5.010
Radial Grid Type                 RadialGrid  ... Gauss-Chebyshev
Angular Grid (max. acc.)         AngularGrid ... Lebedev-434
Angular grid pruning method      GridPruning ... 3 (G Style)
Weight generation scheme         WeightScheme... Becke
Basis function cutoff            BFCut       ...    1.0000e-11
Integration weight cutoff        WCut        ...    1.0000e-14
Grids for H and He will be reduced by one unit

# of grid points (after initial pruning)     ... 128458 (   0.0 sec)
# of grid points (after weights+screening)   ... 118871 (   3.3 sec)
nearest neighbour list constructed           ...    0.0 sec
Grid point re-assignment to atoms done       ...    0.0 sec
Grid point division into batches done        ...    0.8 sec
Reduced shell lists constructed in    1.0 sec

Total number of grid points                  ...   118871
Total number of batches                      ...     1864
Average number of points per batch           ...       63
Average number of grid points per atom       ...     7925
Average number of shells per batch           ...    78.97 (72.45%)
Average number of basis functions per batch  ...   190.06 (71.72%)
Average number of large shells per batch     ...    65.26 (82.65%)
Average number of large basis fcns per batch ...   157.16 (82.69%)
Maximum spatial batch extension              ...   2.03,  1.89,  2.12 au
Average spatial batch extension              ...   0.09,  0.09,  0.09 au

Final grid set up in    5.8 sec
Final integration                            ... done (   0.9 sec)
Change in XC energy                          ...     0.000320792
Integrated number of electrons               ...    51.999977410
Previous integrated no of electrons          ...    51.999499502
Total Energy       :         -324.72174127 Eh           -8836.12780 eV
  Last Energy change         ...   -1.4292e-09  Tolerance :   1.0000e-08
  Last MAX-Density change    ...    1.0575e-04  Tolerance :   1.0000e-07
             **** THE GBW FILE WAS UPDATED (5701_+.gbw) ****
             **** DENSITY FILE WAS UPDATED (5701_+.scfp.tmp) ****
             **** ENERGY FILE WAS UPDATED (5701_+.en.tmp) ****
Total SCF time: 0 days 0 hours 1 min 41 sec 
           ************************************************************
           *              Shut down parallel processing               *
           ************************************************************

-------------------------   --------------------
FINAL SINGLE POINT ENERGY      -324.721741267855
-------------------------   --------------------



           ************************************************************
           *        Program running with 8 parallel MPI-processes     *
           *              working on a common directory               *
           ************************************************************
------------------------------------------------------------------------------
                         ORCA SCF GRADIENT CALCULATION
------------------------------------------------------------------------------

Gradient of the Kohn-Sham DFT energy:
Kohn-Sham wavefunction type      ... RKS
Hartree-Fock exchange scaling    ...    0.250
Number of operators              ...    1
Number of atoms                  ...   15
Basis set dimensions             ...  265
Integral neglect threshold       ... 2.5e-11
Integral primitive cutoff        ... 2.5e-12

Nuclear repulsion gradient       ... done
One Electron Gradient            ... done
Pre-screening matrix             ... done
Starting the two electron gradient:
Two electron gradient done
Exchange-correlation gradient    ... done

------------------
CARTESIAN GRADIENT
------------------

   1   C   :   -0.000041395   -0.000060140   -0.000000613
   2   N   :   -0.000009389    0.000010591    0.000000210
   3   C   :    0.000027891    0.000087325   -0.000000572
   4   C   :    0.000031675   -0.000145008   -0.000001764
   5   C   :   -0.000021445    0.000082588    0.000000343
   6   C   :    0.000010119    0.000003528    0.000040470
   7   O   :   -0.000026726    0.000001808   -0.000035449
   8   H   :    0.000001893    0.000039427    0.000000443
   9   H   :   -0.000001352    0.000005461   -0.000008454
  10   H   :    0.000000067    0.000006229    0.000007314
  11   H   :    0.000015353   -0.000003015    0.000001382
  12   H   :    0.000013878   -0.000003723    0.000000262
  13   H   :   -0.000005176   -0.000002251   -0.000001261
  14   H   :   -0.000004230   -0.000001733    0.000000145
  15   H   :    0.000008838   -0.000021087   -0.000002456

Norm of the cartesian gradient     ...    0.000223084
RMS gradient                       ...    0.000033255
MAX gradient                       ...    0.000145008

-------
TIMINGS
-------

Total SCF gradient time            ...       35.391 sec

One electron gradient       ....       0.142 sec  (  0.4%)
Prescreening matrices       ....       1.035 sec  (  2.9%)
Two electron gradient       ....      29.763 sec  ( 84.1%)
XC gradient                 ....       3.771 sec  ( 10.7%)
           ************************************************************
           *              Shut down parallel processing               *
           ************************************************************
------------------------------------------------------------------------------
                         ORCA GEOMETRY RELAXATION STEP
------------------------------------------------------------------------------

Reading the OPT-File                    .... done
Getting information on internals        .... done
Copying old internal coords+grads       .... done
Making the new internal coordinates     .... (new redundants).... done
Validating the new internal coordinates .... (new redundants).... done
Calculating the B-matrix                .... done
Calculating the G,G- and P matrices     .... done
Transforming gradient to internals      .... done
Projecting the internal gradient        .... done
Number of atoms                         ....  15
Number of internal coordinates          ....  63
Current Energy                          ....  -324.721741268 Eh
Current gradient norm                   ....     0.000223084 Eh/bohr
Maximum allowed component of the step   ....  0.300
Current trust radius                    ....  0.300
Updating the Hessian (BFGS)             .... done
Forming the augmented Hessian           .... done
Diagonalizing the augmented Hessian     .... done
Last element of RFO vector              ....  0.999421913
Lowest eigenvalues of augmented Hessian:
 -0.000001766  0.001430509  0.001500098  0.011961447  0.013882039
Length of the computed step             ....  0.034017310
The final length of the internal step   ....  0.034017310
Converting the step to cartesian space:
 Initial RMS(Int)=    0.0042857782
Transforming coordinates:
 Iter   0:  RMS(Cart)=    0.0092491898 RMS(Int)=    1.3709463219
 Iter   1:  RMS(Cart)=    0.0000550734 RMS(Int)=    0.0000391428
 Iter   2:  RMS(Cart)=    0.0000012766 RMS(Int)=    0.0000014093
 Iter   3:  RMS(Cart)=    0.0000004665 RMS(Int)=    0.0000006531
 Iter   4:  RMS(Cart)=    0.0000002334 RMS(Int)=    0.0000003257
 Iter   5:  RMS(Cart)=    0.0000001167 RMS(Int)=    0.0000001624
 Iter   6:  RMS(Cart)=    0.0000000584 RMS(Int)=    0.0000000810
done
Storing new coordinates                 .... done

                                .--------------------.
          ----------------------|Geometry convergence|---------------------
          Item                value                 Tolerance   Converged
          -----------------------------------------------------------------
          Energy change      -0.00000027            0.00000100      YES
          RMS gradient        0.00002337            0.00003000      YES
          MAX gradient        0.00014029            0.00010000      NO
          RMS step            0.00428578            0.00060000      NO
          MAX step            0.02167448            0.00100000      NO
          ....................................................
          Max(Bonds)      0.0007      Max(Angles)    0.31
          Max(Dihed)        1.24      Max(Improp)    0.00
          -----------------------------------------------------------------

The optimization has not yet converged - more geometry cycles are needed


    ---------------------------------------------------------------------------
                         Redundant Internal Coordinates
                            (Angstroem and degrees)

        Definition                    Value    dE/dq     Step     New-Value
    ----------------------------------------------------------------------------
     1. B(N   1,C   0)                1.4887  0.000037  0.0007    1.4894   
     2. B(C   2,N   1)                1.5090 -0.000001 -0.0007    1.5083   
     3. B(C   3,C   2)                1.4411  0.000016 -0.0000    1.4411   
     4. B(C   4,C   3)                1.2033 -0.000037 -0.0001    1.2032   
     5. B(C   5,C   4)                1.4588 -0.000006  0.0001    1.4588   
     6. B(O   6,C   5)                1.1978 -0.000014 -0.0001    1.1977   
     7. B(H   7,C   0)                1.0885  0.000039  0.0002    1.0887   
     8. B(H   8,C   0)                1.0883 -0.000008 -0.0001    1.0882   
     9. B(H   9,C   0)                1.0883 -0.000009 -0.0001    1.0882   
    10. B(H  10,N   1)                1.0231  0.000004  0.0000    1.0231   
    11. B(H  11,N   1)                1.0231  0.000006  0.0000    1.0231   
    12. B(H  12,C   2)                1.0930  0.000001  0.0001    1.0930   
    13. B(H  13,C   2)                1.0930  0.000004  0.0001    1.0930   
    14. B(H  14,C   5)                1.1026  0.000023  0.0002    1.1028   
    15. A(N   1,C   0,H   8)          108.74  0.000009   -0.02    108.71   
    16. A(H   7,C   0,H   8)          110.13 -0.000001    0.01    110.14   
    17. A(H   7,C   0,H   9)          110.13  0.000000    0.01    110.14   
    18. A(N   1,C   0,H   7)          108.84 -0.000010   -0.05    108.79   
    19. A(N   1,C   0,H   9)          108.74  0.000007   -0.02    108.71   
    20. A(H   8,C   0,H   9)          110.23 -0.000005    0.07    110.30   
    21. A(C   0,N   1,H  10)          110.21  0.000010   -0.00    110.21   
    22. A(C   0,N   1,C   2)          114.33 -0.000013   -0.08    114.25   
    23. A(C   2,N   1,H  10)          108.11  0.000002    0.05    108.16   
    24. A(H  10,N   1,H  11)          105.45 -0.000006   -0.02    105.43   
    25. A(C   2,N   1,H  11)          108.11 -0.000006    0.06    108.17   
    26. A(C   0,N   1,H  11)          110.21  0.000013   -0.00    110.21   
    27. A(C   3,C   2,H  13)          112.03 -0.000025   -0.05    111.98   
    28. A(C   3,C   2,H  12)          112.03 -0.000016   -0.06    111.98   
    29. A(N   1,C   2,C   3)          109.97  0.000054    0.17    110.14   
    30. A(N   1,C   2,H  12)          107.15 -0.000006    0.01    107.15   
    31. A(H  12,C   2,H  13)          108.27 -0.000014   -0.06    108.21   
    32. A(N   1,C   2,H  13)          107.15  0.000009   -0.00    107.15   
    33. L(C   2,C   3,C   4,N   1, 1) 176.37 -0.000140    0.31    176.68   
[...]
     12      -0.061927   0.097593  -0.114019   0.047563  -0.022102  -0.005860
     13       0.010412  -0.026909   0.018160  -0.010244   0.004823  -0.000206
     14       0.006976  -0.035976   0.030999  -0.015948   0.006396   0.004738
     15       0.051793  -0.069249   0.076083  -0.015544   0.006220  -0.004329
     16      -0.050586   0.030372  -0.037775   0.004613   0.000161   0.004075
     17      -0.029283   0.027331  -0.038236   0.002867  -0.002507   0.005232
     18      -0.049079  -0.010496  -0.001538  -0.002596   0.001648   0.004466
     19       0.020522  -0.008815   0.013164  -0.002938   0.001604  -0.002243
     20       0.018562   0.009695  -0.001156   0.005892  -0.003275  -0.006020
     21      -0.165511   0.245557   0.139972  -0.029653   0.470287  -0.239279
     22      -0.051362  -0.081006  -0.043197  -0.024945   0.000078  -0.024901
     23      -0.109576  -0.036203   0.013590   0.184589   0.239125   0.319445
     24      -0.096374   0.067965   0.136188   0.016564  -0.530757  -0.025622
     25       0.141188   0.071798   0.083223   0.102526   0.164712   0.295699
     26       0.127890   0.027752   0.022684   0.070109  -0.232897   0.109342
     27       0.206745   0.117803   0.108810   0.047216  -0.168576   0.356552
     28       0.245712   0.094042   0.031769  -0.068325  -0.271722  -0.295353
     29      -0.320876  -0.056665  -0.007543  -0.011235   0.206641  -0.086417
     30       0.072112  -0.198470  -0.221448  -0.135369  -0.189620  -0.107478
     31       0.147736   0.110142   0.196322   0.194555   0.339982   0.055248
     32      -0.006875   0.003338  -0.007469   0.007956   0.036444  -0.004328
     33       0.073012  -0.240437  -0.260684   0.229472   0.036253   0.359098
     34       0.020828   0.196040   0.165425  -0.242651   0.041786  -0.405611
     35       0.087588  -0.001284   0.052850  -0.006590  -0.020487  -0.024674
     36       0.111925   0.027230   0.066429  -0.463631  -0.058590   0.328396
     37      -0.272887  -0.239870   0.103631   0.357837   0.033577  -0.243431
     38      -0.013572  -0.057200   0.091331  -0.070051  -0.019092   0.061525
     39      -0.284358  -0.607705   0.646705   0.296013  -0.176699  -0.024521
     40      -0.457020  -0.125374  -0.161959  -0.560598   0.110680   0.167483
     41       0.443590   0.432175  -0.327234   0.112206   0.044581  -0.063546
     42       0.152800  -0.117364   0.133846  -0.041846   0.017239   0.005310
     43      -0.010125   0.015101  -0.017459  -0.004324   0.004087   0.006105
     44      -0.083022   0.022367  -0.028813   0.021456  -0.010339   0.000945
                 30         31         32         33         34         35    
      0      -0.016990   0.020509  -0.003838  -0.036620   0.100504   0.004856
      1      -0.035232   0.015850  -0.005914   0.050367  -0.016414   0.005980
      2       0.010714   0.018812  -0.000162  -0.001896  -0.011097  -0.001419
      3       0.025849  -0.001470  -0.003484   0.059203   0.039211  -0.000909
      4       0.048683  -0.012344   0.000341  -0.085831  -0.048108   0.003017
      5      -0.003015  -0.008939  -0.003327  -0.006380  -0.001505   0.002703
      6      -0.136378   0.015434   0.016302  -0.045426  -0.028215  -0.004039
      7       0.062180  -0.010866   0.001649   0.010873   0.019170  -0.006138
      8      -0.000651  -0.011523   0.001194   0.001864   0.006107   0.004352
      9       0.007219   0.005575  -0.014188  -0.000608  -0.000310  -0.004874
     10      -0.013174   0.003311   0.007658   0.000258  -0.000313  -0.010834
     11      -0.007078  -0.006230   0.001481  -0.001786   0.000995  -0.013188
     12       0.027290   0.003274  -0.010082   0.001193   0.001263  -0.011812
     13      -0.014297   0.001918  -0.008757  -0.004336  -0.000164   0.001701
     14      -0.012413  -0.005432   0.003038  -0.000840   0.000620   0.006565
     15      -0.005262   0.010384   0.080492   0.000350  -0.000860  -0.433342
     16       0.003162  -0.006349  -0.030396   0.000089   0.000168  -0.546349
     17      -0.000381  -0.008056  -0.029553  -0.000510   0.000540   0.028238
     18       0.004555  -0.003997   0.007072   0.002940   0.002172   0.320414
     19       0.002951   0.007743   0.054953   0.002731  -0.001811   0.433020
     20       0.003240   0.001781   0.010638   0.000430  -0.000386  -0.010900
     21       0.288721  -0.238350   0.012382   0.013159  -0.673804   0.000770
     22      -0.018503  -0.017539  -0.003798   0.055565  -0.065506   0.006072
     23       0.019081   0.312805  -0.023219   0.055259   0.002300  -0.005814
     24      -0.227736  -0.319199   0.040484   0.279883  -0.277502  -0.003080
     25       0.034768   0.253229  -0.035977  -0.049489   0.214930   0.003031
     26      -0.082174  -0.028038   0.005863   0.127128  -0.099917  -0.005123
     27      -0.087644   0.334038  -0.061443   0.381276  -0.401902  -0.003282
     28      -0.046019  -0.213921   0.034702  -0.196568   0.283324   0.005002
     29       0.061671  -0.037906   0.010466  -0.117215   0.123386   0.001948
     30       0.260306   0.289213  -0.039975  -0.374760  -0.168799   0.001441
     31      -0.139211  -0.385751   0.036011   0.476065   0.263126  -0.006141
     32       0.024997  -0.017738  -0.007547   0.014487   0.017910   0.003207
     33      -0.054868  -0.328526   0.059344  -0.369019  -0.081493   0.010752
     34       0.120611   0.317798  -0.065513   0.369198   0.092429  -0.004265
     35       0.005744   0.022304  -0.008403   0.005870  -0.005174   0.003573
     36       0.480442  -0.182923   0.025694   0.118091   0.097504  -0.037246
     37      -0.336939   0.147154  -0.022683  -0.094146  -0.081461  -0.001156
     38       0.158611  -0.052566  -0.005869   0.053908   0.030698  -0.017201
     39       0.445167  -0.025352  -0.036232   0.086959   0.062147  -0.014474
     40      -0.351768  -0.050578   0.005399  -0.077089  -0.039709   0.014367
     41      -0.112100   0.032918   0.028726  -0.032262  -0.011204  -0.006015
     42      -0.056915  -0.102502  -0.882540  -0.038453   0.002030   0.324792
     43      -0.017723  -0.047790  -0.398994  -0.016387   0.000936  -0.310922
     44       0.031521   0.012260   0.163396   0.012404   0.002830  -0.131629
                 36         37         38         39         40         41    
      0      -0.001596  -0.007219  -0.002002   0.009753  -0.010115  -0.043107
      1      -0.006828  -0.003650  -0.002296   0.006244  -0.004823  -0.021199
      2      -0.014850   0.008818  -0.008279   0.012347   0.000762  -0.008614
      3       0.002786  -0.063514  -0.018797   0.023568  -0.008683  -0.001484
      4      -0.020254  -0.045979  -0.019274   0.022224  -0.008488  -0.004063
      5       0.014558   0.008714   0.012100   0.011984  -0.006170  -0.007292
      6       0.112274   0.007329   0.005087  -0.031589   0.004304  -0.029515
      7      -0.018173  -0.004268   0.006984  -0.021493   0.001493  -0.028120
      8       0.007580   0.019737   0.037948   0.032558  -0.016634  -0.009762
      9      -0.670275   0.005138  -0.002173  -0.003816  -0.001656  -0.004501
     10       0.186897   0.010195  -0.003160   0.006598  -0.000355   0.000825
     11       0.109411  -0.003457   0.014042   0.003006  -0.005807  -0.002679
     12       0.628833  -0.007683  -0.011926   0.001847   0.000957   0.003426
     13      -0.126009   0.001272   0.006575   0.000751  -0.002266  -0.002960
     14      -0.175290   0.006232   0.012730   0.006124  -0.004731  -0.003014
     15      -0.063828   0.000849  -0.000005   0.008731   0.026279  -0.004790
     16       0.017904  -0.001601   0.003989  -0.024593  -0.077936   0.014391
     17       0.054802  -0.002495   0.000894  -0.004638  -0.008013   0.001262
     18      -0.002913   0.003839   0.004140   0.005446  -0.002680  -0.000745
     19      -0.013452  -0.003371  -0.001652  -0.002577   0.004649   0.001056
     20       0.008165  -0.003699  -0.007671  -0.004993   0.000183   0.001858
     21      -0.006102  -0.000345  -0.000324   0.000162   0.002075   0.010353
     22      -0.003487  -0.015749  -0.009779   0.045088  -0.050282  -0.210679
     23      -0.040094   0.006274  -0.030773   0.010500   0.009916  -0.016607
     24      -0.018499   0.046154   0.015453  -0.036448   0.049432   0.228390
     25      -0.008623   0.042112   0.024641  -0.044063   0.046462   0.238861
     26       0.005988  -0.008065   0.008295   0.072287  -0.082153  -0.359056
     27      -0.009590   0.022736   0.027870  -0.089607   0.072402   0.268885
     28      -0.039668   0.015324   0.017285  -0.079302   0.072079   0.239550
     29       0.005867   0.005162   0.050925  -0.120029   0.107363   0.445209
     30       0.054876   0.725446  -0.007885  -0.001393  -0.012160  -0.048009
     31       0.046327   0.575446  -0.013869   0.006951  -0.006465  -0.041852
     32      -0.009388  -0.319707   0.054049  -0.052585   0.038903   0.070704
     33       0.004926   0.061823   0.323582  -0.386230   0.163905   0.107028
     34       0.046683   0.052915   0.311284  -0.347851   0.142985   0.098366
     35      -0.016653  -0.109347   0.161224  -0.272165   0.122820   0.080393
     36      -0.010163  -0.032653   0.246335   0.291109  -0.067813   0.122665
     37      -0.089686  -0.035331   0.157475   0.196706  -0.051335   0.098089
     38      -0.067288  -0.046005  -0.542821  -0.590618   0.124686  -0.242019
     39      -0.051570   0.016007  -0.287203   0.070713   0.013729   0.223741
     40      -0.112555   0.033293  -0.318338   0.066047   0.022444   0.209611
     41       0.006950   0.061884  -0.442656   0.192941   0.000059   0.380647
     42      -0.020812   0.001375   0.008944  -0.082644  -0.293942   0.054605
     43       0.015013   0.001218  -0.018740   0.275668   0.867852  -0.150621
     44       0.001342   0.003849   0.012194   0.083804   0.171412  -0.015668
                  42         43         44    
      0      -0.031071   0.007692  -0.008493
      1      -0.011565   0.000216  -0.093035
      2      -0.003516  -0.086868  -0.001167
      3       0.020720  -0.000485   0.000837
      4       0.019289   0.001108   0.000552
      5       0.015061  -0.000551   0.000920
      6       0.028716  -0.004325   0.000466
      7       0.027857  -0.002658   0.000778
      8       0.022877  -0.003443   0.000508
      9       0.003584   0.000830  -0.000185
     10       0.000846   0.000590   0.000005
     11       0.004740   0.000769   0.000349
     12      -0.001159  -0.001074   0.000025
     13       0.004111  -0.000604  -0.000315
     14       0.004623   0.000216   0.000500
     15       0.001280   0.000062  -0.000051
     16      -0.003580  -0.000655   0.000097
     17      -0.001104   0.001477   0.000403
     18       0.002623  -0.000402   0.000129
     19      -0.002378  -0.000042   0.000203
     20      -0.001564  -0.000956  -0.000670
     21       0.007965  -0.002362  -0.065085
     22      -0.170958   0.069130   0.958982
     23      -0.000649  -0.023509   0.044432
     24       0.136773  -0.347594   0.091695
     25       0.138379  -0.340151   0.092712
     26      -0.223551   0.604466  -0.156987
     27       0.195136   0.274757   0.070511
     28       0.181813   0.234415   0.057275
     29       0.359197   0.497750   0.121567
     30       0.018363   0.010769   0.003808
     31       0.014901   0.018930  -0.005619
     32      -0.057509  -0.031675   0.002773
     33      -0.359466  -0.001445  -0.008445
     34      -0.331910  -0.004142  -0.011329
     35      -0.303731  -0.019166  -0.017764
     36      -0.074107   0.012931  -0.001148
     37      -0.063086   0.013306   0.001910
     38       0.151241  -0.014364   0.003894
     39      -0.261023   0.030566  -0.005534
     40      -0.235367   0.027726  -0.005549
     41      -0.431505   0.052574  -0.008383
     42      -0.009264  -0.002446  -0.001310
     43       0.025393   0.003112   0.002583
     44      -0.007057   0.003543   0.001245


-----------
IR SPECTRUM
-----------

 Mode    freq (cm**-1)   T**2         TX         TY         TZ
-------------------------------------------------------------------
  19:       314.09    8.226233  (  2.096778  -1.956290   0.051795)
  20:       437.23    7.957736  (  2.424858  -0.365786  -1.394274)
  21:       782.35   28.528315  (  5.331354  -0.267990  -0.182100)
  22:       833.38   35.084714  (  2.476875  -5.378125   0.159910)
  23:       851.11   19.006183  (  3.465559  -1.083191  -2.413043)
  24:       950.81   15.079088  (  3.068829  -1.780038   1.578873)
  25:      1002.36   22.577888  ( -4.157902   1.443585   1.790475)
  26:      1035.16   88.446151  (  8.898474  -2.960523  -0.706127)
  27:      1159.82    8.788638  ( -2.952153   0.187855  -0.195294)
  28:      1239.16    5.558120  ( -1.509647  -1.259470   1.301085)
  29:      1270.79   18.499880  (  1.363075  -2.937033   2.831209)
  30:      1351.19   24.830518  ( -4.843622   0.104078   1.165765)
  31:      1367.31   14.334914  (  0.741136  -2.168546   3.013808)
  32:      1373.41   23.936674  (  3.752886  -3.129208  -0.246132)
  33:      1424.18   86.194552  ( -6.512744   6.591680   0.573133)
  34:      1448.07   24.587729  ( -3.820974   3.098447   0.622505)
  35:      1774.92  156.625750  (-10.729980  -6.440952   0.086136)
  36:      2149.40    1.535558  ( -0.886326  -0.860795  -0.094955)
  37:      2530.68   80.129069  (  5.599445   5.565373  -4.219230)
  38:      2803.70   12.915311  (  0.125935   3.586469  -0.191552)
  39:      2928.14   29.530916  ( -3.011607  -2.556835  -3.731453)
  40:      2942.46   39.007807  (  3.652989  -4.578952   2.167182)
  41:      2968.88    6.437877  (  0.444815   2.162211   1.250943)
  42:      3000.55   19.469289  ( -2.169425  -2.688792  -2.744683)
  43:      3103.32    0.815360  ( -0.664348   0.594584   0.143078)
  44:      3168.89    1.022073  (  0.087757   1.005312   0.060980)

The first frequency considered to be a vibration is 19
The total number of vibrations considered is 26


--------------------------
THERMOCHEMISTRY AT 298.15K
--------------------------

Temperature         ... 298.15 K
Pressure            ... 1.00 atm
Total Mass          ... 98.12 AMU

Throughout the following assumptions are being made:
  (1) The electronic state is orbitally nondegenerate
  (2) There are no thermally accessible electronically excited states
  (3) Hindered rotations indicated by low frequency modes) are not
      treated as such but are treated as vibrations and this may
      case some error
  (4) All equations used are the standard statistical mechanics
      equations for an ideal gas
  (5) All vibrations are strinctly harmonic


------------
INNER ENERGY
------------

The inner energy is: U= E(el) + E(ZPE) + E(vib) + E(rot) + E(trans)
    E(el)   - is the total energy from the electronic structure calculation
              = E(kin-el) + E(nuc-el) + E(el-el) + E(nuc-nuc)
    E(ZPE)  - the the zero temperature vibrational energy from the frequency calculation
    E(vib)  - the the finite temperature correction to E(ZPE) due to population
              of excietd vibrational states
    E(rot)  - is the rotational thermal energy
    E(trans)- is the translational thermal energy

Summary of contributions to the inner energy U:
Electronic energy                ...   -324.72173762 Eh
Zero point energy                ...      0.10072087 Eh      63.20 kcal/mol
Thermal vibrational correction   ...      0.00109604 Eh       0.69 kcal/mol
Thermal rotational correction    ...      0.00141627 Eh       0.89 kcal/mol
Thermal translational correction ...      0.00141627 Eh       0.89 kcal/mol
-----------------------------------------------------------------------
Total thermal energy                   -324.61708816 Eh


Summary of corrections to the electronic energy:
(perhaps to be used in another calculation)
Total thermal correction                  0.00392858 Eh       2.47 kcal/mol
Non-thermal (ZPE) correction              0.10072087 Eh      63.20 kcal/mol
-----------------------------------------------------------------------
Total correction                          0.10464945 Eh      65.67 kcal/mol


--------
ENTHALPY
--------

The enthalpy is H = U + kB*T
                kB is Boltzmann's constant
Total free energy                 ...   -324.61708816 Eh 
Thermal Enthalpy correction       ...      0.00094421 Eh       0.59 kcal/mol
-----------------------------------------------------------------------
Total Enthalpy                    ...   -324.61614395 Eh


-------
ENTROPY
-------

The entropy contributions are T*S = T*(S(el)+S(vib)+S(rot)+S(trans)
     S(el)   - electronic entropy
     S(vib)  - vibrational entropy
     S(rot)  - rotational entropy
     S(trans)- translational entropy
The entropies will be listed as mutliplied by the temperature to get
units of energy

Electronic entropy                ...      0.00000000 Eh      0.00 kcal/mol
Vibrational entropy               ...      0.00154442 Eh      0.97 kcal/mol
Rotational entropy                ...      0.01234047 Eh      7.74 kcal/mol
Translational entropy             ...      0.01884443 Eh     11.83 kcal/mol
-----------------------------------------------------------------------
Final entropy term                ...      0.03272933 Eh     20.54 kcal/mol


CAUTION: The rotational entropy is not quite correctly treated here
         because it includes a symmetry number that is not yet correctly
         implemented in ORCA!
For a nonlinear molecule the correct rotational entropy is:
    S(rot) = R*(ln(qrot/sn)+1.5)
    R    = 8.31441 J/mol/K = 1.987191683e-3 kcal/mol/K
    qrot = 317629.6354569
    sn is the rotational symmetry number. We have assumed 3 here
       if it is different for your molecule then you should correct
       the printed rotational entropy by manually evaluating the equation
       as given above

For convenience we print out the resulting values for sn=1 - 12:
 sn= 1  qrot/sn=  317629.6355 T*S(rot)=     8.39 kcal/mol T*S(tot)=    21.19 kcal/mol
 sn= 2  qrot/sn=  158814.8177 T*S(rot)=     7.98 kcal/mol T*S(tot)=    20.78 kcal/mol
 sn= 3  qrot/sn=  105876.5452 T*S(rot)=     7.74 kcal/mol T*S(tot)=    20.54 kcal/mol
 sn= 4  qrot/sn=   79407.4089 T*S(rot)=     7.57 kcal/mol T*S(tot)=    20.37 kcal/mol
 sn= 5  qrot/sn=   63525.9271 T*S(rot)=     7.44 kcal/mol T*S(tot)=    20.24 kcal/mol
 sn= 6  qrot/sn=   52938.2726 T*S(rot)=     7.33 kcal/mol T*S(tot)=    20.13 kcal/mol
 sn= 7  qrot/sn=   45375.6622 T*S(rot)=     7.24 kcal/mol T*S(tot)=    20.04 kcal/mol
 sn= 8  qrot/sn=   39703.7044 T*S(rot)=     7.16 kcal/mol T*S(tot)=    19.96 kcal/mol
 sn= 9  qrot/sn=   35292.1817 T*S(rot)=     7.09 kcal/mol T*S(tot)=    19.89 kcal/mol
 sn=10  qrot/sn=   31762.9635 T*S(rot)=     7.03 kcal/mol T*S(tot)=    19.82 kcal/mol
 sn=11  qrot/sn=   28875.4214 T*S(rot)=     6.97 kcal/mol T*S(tot)=    19.77 kcal/mol
 sn=12  qrot/sn=   26469.1363 T*S(rot)=     6.92 kcal/mol T*S(tot)=    19.72 kcal/mol


-------------------
GIBBS FREE ENTHALPY
-------------------

The Gibbs free enthalpy is G = H - T*S

Total enthalpy                    ...   -324.61614395 Eh 
Total entropy correction          ...     -0.03272933 Eh    -20.54 kcal/mol
-----------------------------------------------------------------------
Final Gibbs free enthalpy         ...   -324.64887328 Eh

For completeness - the Gibbs free enthalpy minus the electronic energy
G-E(el)                           ...      0.07286434 Eh     45.72 kcal/mol


Timings for individual modules:

Sum of individual times         ...     2944.105 sec (=  49.068 min)
GTO integral calculation        ...       27.002 sec (=   0.450 min)   0.9 %
SCF iterations                  ...     1048.748 sec (=  17.479 min)  35.6 %
SCF Gradient evaluation         ...      383.406 sec (=   6.390 min)  13.0 %
Geometry relaxation             ...        0.597 sec (=   0.010 min)   0.0 %
Analytical frequency calculation...     1484.353 sec (=  24.739 min)  50.4 %
                             ****ORCA TERMINATED NORMALLY****
TOTAL RUN TIME: 0 days 0 hours 49 minutes 6 seconds 85 msec
