
                                 *****************
                                 * O   R   C   A *
                                 *****************

           --- An Ab Initio, DFT and Semiempirical electronic structure package ---

                  #######################################################
                  #                        -***-                        #
                  #  Department of molecular theory and spectroscopy    #
                  #              Directorship: Frank Neese              #
                  # Max Planck Institute for Chemical Energy Conversion #
                  #                  D-45470 Muelheim/Ruhr              #
                  #                       Germany                       #
                  #                                                     #
                  #                  All rights reserved                #
                  #                        -***-                        #
                  #######################################################


                         Program Version 3.0.3 - RELEASE   -


 With contributions from (in alphabetic order):
   Ute Becker             : Parallelization
   Dmytro Bykov           : SCF Hessian
   Dmitry Ganyushin       : Spin-Orbit,Spin-Spin,Magnetic field MRCI
   Andreas Hansen         : Spin unrestricted coupled pair/coupled cluster methods
   Dimitrios Liakos       : Extrapolation schemes; parallel MDCI
   Robert Izsak           : Overlap fitted RIJCOSX, COSX-SCS-MP3
   Christian Kollmar      : KDIIS, OOCD, Brueckner-CCSD(T), CCSD density
   Simone Kossmann        : Meta GGA functionals, TD-DFT gradient, OOMP2, MP2 Hessian
   Taras Petrenko         : DFT Hessian,TD-DFT gradient, ASA and ECA modules, normal mode analysis, Resonance Raman, ABS, FL, XAS/XES, NRVS
   Christoph Reimann      : Effective Core Potentials
   Michael Roemelt        : Restricted open shell CIS
   Christoph Riplinger    : Improved optimizer, TS searches, QM/MM, DLPNO-CCSD
   Barbara Sandhoefer     : DKH picture change effects
   Igor Schapiro          : Molecular dynamics
   Kantharuban Sivalingam : CASSCF convergence, NEVPT2
   Boris Wezisla          : Elementary symmetry handling
   Frank Wennmohs         : Technical directorship


 We gratefully acknowledge several colleagues who have allowed us to
 interface, adapt or use parts of their codes:
   Stefan Grimme, W. Hujo, H. Kruse, T. Risthaus : VdW corrections, initial TS optimization,
                                                   DFT functionals, gCP
   Ed Valeev                                     : LibInt (2-el integral package), F12 methods
   Garnet Chan, S. Sharma, R. Olivares           : DMRG
   Ulf Ekstrom                                   : XCFun DFT Library
   Mihaly Kallay                                 : mrcc  (arbitrary order and MRCC methods)
   Andreas Klamt, Michael Diedenhofen            : otool_cosmo (COSMO solvation model)
   Frank Weinhold                                : gennbo (NPA and NBO analysis)
   Christopher J. Cramer and Donald G. Truhlar   : smd solvation model


 Your calculation uses the libint2 library for the computation of 2-el integrals
 For citations please refer to: http://libint.valeyev.net

 This ORCA versions uses:
   CBLAS   interface :  Fast vector & matrix operations
   LAPACKE interface :  Fast linear algebra routines
   SCALAPACK package :  Parallel linear algebra routines


Your calculation utilizes the basis: Ahlrichs-TZV
Cite in your paper:
H - Kr: A. Schaefer, H. Horn and R. Ahlrichs, J. Chem. Phys. 97, 2571 (1992).

The def2-TZV basis will be loaded
Cite in your paper:
 	F. Weigend, R. Ahlrichs, Phys. Chem. Chem. Phys. 2005, 7, 3297.

================================================================================
                                        WARNINGS
                       Please study these warnings very carefully!
================================================================================
Now building the actual basis set
WARNING: Geometry optimizations can change the point-group symmetry!

WARNING: Geometry Optimization
  ===> : Switching off AutoStart
         For restart on a previous wavefunction, please use MOREAD


INFO   : the flag for use of LIBINT has been found!

================================================================================
                                       INPUT FILE
================================================================================
NAME = 6070_+.inp
|  1> ! NORI PBE0 def2-TZVP UseSym TightOPT Freq TightSCF Grid3 FinalGrid5 XYZFile
|  2> % pal
|  3>     nprocs 8
|  4> end
|  5> %method
|  6>     SymThresh 5.0e-2
|  7> end
|  8> % geom 
|  9>     MaxIter 10
| 10> end 
| 11> % maxcore 2000
| 12> % output
| 13>     printlevel mini
| 14>     print[ P_Basis ] 0
| 15>     print[ P_SCFInfo ] 1
| 16>     print[ P_SCFIterInfo ] 1
| 17>     print[ P_OrbEn ] 0
| 18>     print[ P_Cartesian ] 0
| 19> end
| 20> % elprop
| 21>     Dipole false
| 22> end
| 23> *xyz 1 1
| 24>  N        0.7649964594    -0.2040760650    -0.6634013648 
| 25>  C        2.1312911111    -0.1876244217    -0.0886069245 
| 26>  C        3.2459580907    -0.8735600278    -0.8115613870 
| 27>  C        3.1813048079     0.6195505722    -0.7558161101 
| 28>  O        4.0177620904     1.3124841137     0.1093240910 
| 29>  C        4.9744441813     2.0628787729    -0.5086528437 
| 30>  O        5.0885365658     2.1552586132    -1.6862045500 
| 31>  H        0.2733368252    -1.0710473254    -0.4263264553 
| 32>  H        0.7900634077    -0.1379120946    -1.6839636972 
| 33>  H        0.2053000944     0.5812230762    -0.3183177171 
| 34>  H        2.1048278372    -0.2196187589     0.9932751764 
| 35>  H        3.9643531367    -1.3872826243    -0.1849451894 
| 36>  H        3.0601739862    -1.3412572194    -1.7722821312 
| 37>  H        2.9568401372     1.1424340350    -1.6814297131 
| 38>  H        5.5874412689     2.5533193538     0.2558088161 
| 39> *
| 40> 
| 41>                          ****END OF INPUT****
================================================================================

The point group is C1 - hence turning off symmetry
If this is a round-off problem, please increase the symmetry
        detection tolerance (%method SymThresh)


                       *****************************
                       * Geometry Optimization Run *
                       *****************************

Geometry optimization settings:
Update method            Update   .... BFGS
Choice of coordinates    CoordSys .... Redundant Internals
Initial Hessian          InHess   .... Almoef's Model

Convergence Tolerances:
Energy Change            TolE     ....  1.0000e-06 Eh
Max. Gradient            TolMAXG  ....  1.0000e-04 Eh/bohr
RMS Gradient             TolRMSG  ....  3.0000e-05 Eh/bohr
Max. Displacement        TolMAXD  ....  1.0000e-03 bohr
RMS Displacement         TolRMSD  ....  6.0000e-04 bohr

------------------------------------------------------------------------------
                        ORCA OPTIMIZATION COORDINATE SETUP
------------------------------------------------------------------------------

The optimization will be done in new redundant internal coordinates
Making redundant internal coordinates   ...  (new redundants) done
Evaluating the initial hessian          ...  (Almloef) done
Evaluating the coordinates              ...  done
Calculating the B-matrix                .... done
Calculating the G-matrix                .... done
Diagonalizing the G-matrix              .... done
The first mode is                       ....   42
The number of degrees of freedom        ....   39

    -----------------------------------------------------------------
                    Redundant Internal Coordinates


    -----------------------------------------------------------------
         Definition                    Initial Value    Approx d2E/dq
    -----------------------------------------------------------------
      1. B(C   1,N   0)                  1.4824         0.398571   
      2. B(C   2,C   1)                  1.4952         0.424505   
      3. B(C   3,C   1)                  1.4830         0.444013   
      4. B(C   3,C   2)                  1.4955         0.423977   
      5. B(O   4,C   3)                  1.3886         0.562427   
      6. B(C   5,O   4)                  1.3639         0.615905   
      7. B(O   6,C   5)                  1.1867         1.181082   
      8. B(H   7,N   0)                  1.0245         0.410282   
      9. B(H   8,N   0)                  1.0230         0.412511   
     10. B(H   9,N   0)                  1.0242         0.410676   
     11. B(H  10,C   1)                  1.0827         0.369917   
     12. B(H  11,C   2)                  1.0829         0.369630   
     13. B(H  12,C   2)                  1.0845         0.367387   
     14. B(H  13,C   3)                  1.0865         0.364717   
     15. B(H  14,C   5)                  1.0958         0.352555   
     16. A(C   1,N   0,H   8)          111.3167         0.330380   
     17. A(H   8,N   0,H   9)          107.4526         0.298459   
     18. A(C   1,N   0,H   7)          111.2226         0.330084   
     19. A(H   7,N   0,H   8)          107.2982         0.298414   
     20. A(H   7,N   0,H   9)          107.9763         0.298203   
     21. A(C   1,N   0,H   9)          111.3778         0.330136   
     22. A(C   2,C   1,C   3)           60.2853         0.382663   
     23. A(N   0,C   1,H  10)          111.3837         0.327275   
     24. A(C   3,C   1,H  10)          118.8796         0.335195   
     25. A(C   2,C   1,H  10)          119.1976         0.332704   
     26. A(N   0,C   1,C   3)          118.9592         0.376121   
     27. A(N   0,C   1,C   2)          119.6395         0.373216   
     28. A(H  11,C   2,H  12)          114.9387         0.292959   
     29. A(C   3,C   2,H  12)          117.1388         0.332258   
     30. A(C   1,C   2,H  12)          119.8967         0.332326   
     31. A(C   3,C   2,H  11)          118.7335         0.332593   
     32. A(C   1,C   2,H  11)          115.6207         0.332662   
     33. A(C   1,C   2,C   3)           59.4521         0.379610   
     34. A(C   2,C   3,O   4)          119.6945         0.396169   
     35. A(C   1,C   3,O   4)          114.6959         0.399396   
     36. A(C   2,C   3,H  13)          117.2345         0.331856   
     37. A(C   1,C   3,H  13)          119.9299         0.334408   
     38. A(C   1,C   3,C   2)           60.2626         0.382580   
     39. A(O   4,C   3,H  13)          114.5222         0.345766   
     40. A(C   3,O   4,C   5)          114.5051         0.420508   
     41. A(O   6,C   5,H  14)          127.1327         0.390393   
     42. A(O   4,C   5,H  14)          108.8169         0.349095   
     43. A(O   4,C   5,O   6)          124.0478         0.481124   
     44. D(C   2,C   1,N   0,H   9)   -156.4169         0.014519   
     45. D(H  10,C   1,N   0,H   8)    177.8379         0.014519   
     46. D(C   2,C   1,N   0,H   8)    -36.5174         0.014519   
     47. D(C   3,C   1,N   0,H   8)     33.7924         0.014519   
     48. D(C   2,C   1,N   0,H   7)     83.0823         0.014519   
     49. D(H  10,C   1,N   0,H   7)    -62.5625         0.014519   
     50. D(C   3,C   1,N   0,H   9)    -86.1071         0.014519   
     51. D(C   3,C   1,N   0,H   7)    153.3921         0.014519   
     52. D(H  10,C   1,N   0,H   9)     57.9384         0.014519   
     53. D(C   3,C   2,C   1,N   0)    108.4624         0.014252   
     54. D(H  11,C   2,C   1,N   0)   -141.9006         0.014252   
     55. D(H  11,C   2,C   1,H  10)      1.0892         0.014252   
     56. D(C   3,C   2,C   1,H  10)   -108.5478         0.014252   
     57. D(H  12,C   2,C   1,N   0)      2.7000         0.014252   
     58. D(H  11,C   2,C   1,C   3)    109.6370         0.014252   
     59. D(H  12,C   2,C   1,H  10)    145.6898         0.014252   
     60. D(H  12,C   2,C   1,C   3)   -105.7623         0.014252   
     61. D(O   4,C   3,C   2,H  12)   -146.4557         0.014217   
     62. D(O   4,C   3,C   2,H  11)     -1.2336         0.014217   
     63. D(O   4,C   3,C   2,C   1)    103.1877         0.014217   
     64. D(C   1,C   3,C   2,H  11)   -104.4213         0.014217   
     65. D(H  13,C   3,C   1,H  10)   -144.7177         0.015575   
     66. D(H  13,C   3,C   1,C   2)    106.2161         0.015575   
     67. D(H  13,C   3,C   1,N   0)     -3.3540         0.015575   
     68. D(O   4,C   3,C   1,H  10)     -2.3562         0.015575   
     69. D(C   1,C   3,C   2,H  12)    110.3566         0.014217   
     70. D(O   4,C   3,C   1,C   2)   -111.4223         0.015575   
     71. D(O   4,C   3,C   1,N   0)    139.0076         0.015575   
     72. D(C   2,C   3,C   1,H  10)    109.0662         0.015575   
     73. D(H  13,C   3,C   2,C   1)   -110.6241         0.014217   
     74. D(C   2,C   3,C   1,N   0)   -109.5701         0.015575   
     75. D(H  13,C   3,C   2,H  12)     -0.2675         0.014217   
     76. D(H  13,C   3,C   2,H  11)    144.9546         0.014217   
     77. D(C   5,O   4,C   3,H  13)    -35.0158         0.025275   
     78. D(C   5,O   4,C   3,C   2)    112.0394         0.025275   
     79. D(C   5,O   4,C   3,C   1)   -179.4454         0.025275   
     80. D(H  14,C   5,O   4,C   3)   -179.1037         0.027805   
     81. D(O   6,C   5,O   4,C   3)      1.4470         0.027805   
    -----------------------------------------------------------------

Number of atoms                         .... 15
Number of degrees of freedom            .... 81

         *************************************************************
         *                GEOMETRY OPTIMIZATION CYCLE   1            *
         *************************************************************


           ************************************************************
           *        Program running with 8 parallel MPI-processes     *
           *              working on a common directory               *
           ************************************************************
           ************************************************************
           *              Shut down parallel processing               *
           ************************************************************


           ************************************************************
           *        Program running with 8 parallel MPI-processes     *
           *              working on a common directory               *
           ************************************************************
------------
SCF SETTINGS
------------
Hamiltonian:
 Density Functional     Method          .... DFT(GTOs)
 Exchange Functional    Exchange        .... PBE
   PBE kappa parameter  XKappa          ....  0.804000
 Correlation Functional Correlation     .... PBE
 LDA part of GGA corr.  LDAOpt          .... PW91-LDA
 Gradients option       PostSCFGGA      .... off
 Hybrid DFT is turned on
   Fraction HF Exchange ScalHFX         ....  0.250000
   Scaling of DF-GGA-X  ScalDFX         ....  0.750000
   Scaling of DF-GGA-C  ScalDFC         ....  1.000000
   Scaling of DF-LDA-C  ScalLDAC        ....  1.000000
   Perturbative correction              ....  0.000000
   NL short-range parameter             ....  6.900000


General Settings:
 Integral files         IntName         .... 6070_+
 Hartree-Fock type      HFTyp           .... RHF
 Total Charge           Charge          ....    1
 Multiplicity           Mult            ....    1
 Number of Electrons    NEL             ....   54
 Basis Dimension        Dim             ....  265
 Nuclear Repulsion      ENuc            ....    313.0380631884 Eh

Convergence Acceleration:
 DIIS                   CNVDIIS         .... on
   Start iteration      DIISMaxIt       ....    12
   Startup error        DIISStart       ....  0.200000
   # of expansion vecs  DIISMaxEq       ....     5
   Bias factor          DIISBfac        ....   1.050
   Max. coefficient     DIISMaxC        ....  10.000
 Newton-Raphson         CNVNR           .... off
 SOSCF                  CNVSOSCF        .... on
   Start iteration      SOSCFMaxIt      ....   150
   Startup grad/error   SOSCFStart      ....  0.003300
 Level Shifting         CNVShift        .... on
   Level shift para.    LevelShift      ....    0.2500
   Turn off err/grad.   ShiftErr        ....    0.0010
 Zerner damping         CNVZerner       .... off
 Static damping         CNVDamp         .... on
   Fraction old density DampFac         ....    0.7000
   Max. Damping (<1)    DampMax         ....    0.9800
   Min. Damping (>=0)   DampMin         ....    0.0000
   Turn off err/grad.   DampErr         ....    0.1000
 Fernandez-Rico         CNVRico         .... off

SCF Procedure:
 Maximum # iterations   MaxIter         ....   125
 SCF integral mode      SCFMode         .... Direct
   Integral package                     .... LIBINT
 Reset frequeny         DirectResetFreq ....    20
 Integral Threshold     Thresh          ....  2.500e-11 Eh
 Primitive CutOff       TCut            ....  2.500e-12 Eh

Convergence Tolerance:
 Convergence Check Mode ConvCheckMode   .... Total+1el-Energy
 Energy Change          TolE            ....  1.000e-08 Eh
 1-El. energy change                    ....  1.000e-05 Eh
 Orbital Gradient       TolG            ....  1.000e-05
 Orbital Rotation angle TolX            ....  1.000e-05
 DIIS Error             TolErr          ....  5.000e-07


Diagonalization of the overlap matrix:
Smallest eigenvalue                        ... 1.223e-04
Time for diagonalization                   ...    0.031 sec
Threshold for overlap eigenvalues          ... 1.000e-08
Number of eigenvalues below threshold      ... 0
Time for construction of square roots      ...    0.012 sec
Total time needed                          ...    0.043 sec

-------------------
DFT GRID GENERATION
-------------------

General Integration Accuracy     IntAcc      ...  4.340
Radial Grid Type                 RadialGrid  ... Gauss-Chebyshev
Angular Grid (max. acc.)         AngularGrid ... Lebedev-194
Angular grid pruning method      GridPruning ... 3 (G Style)
Weight generation scheme         WeightScheme... Becke
Basis function cutoff            BFCut       ...    1.0000e-11
Integration weight cutoff        WCut        ...    1.0000e-14
Grids for H and He will be reduced by one unit

# of grid points (after initial pruning)     ...  35386 (   0.0 sec)
# of grid points (after weights+screening)   ...  32864 (   0.0 sec)
nearest neighbour list constructed           ...    0.0 sec
Grid point re-assignment to atoms done       ...    0.0 sec
Grid point division into batches done        ...    0.1 sec
Reduced shell lists constructed in    0.1 sec

Total number of grid points                  ...    32864
Total number of batches                      ...      522
Average number of points per batch           ...       62
Average number of grid points per atom       ...     2191
Average number of shells per batch           ...    82.85 (76.01%)
Average number of basis functions per batch  ...   201.63 (76.09%)
Average number of large shells per batch     ...    69.25 (83.59%)
Average number of large basis fcns per batch ...   168.42 (83.53%)
Maximum spatial batch extension              ...   2.62,  2.32,  2.24 au
Average spatial batch extension              ...   0.15,  0.15,  0.15 au

Time for grid setup =    0.201 sec

Loading Hartree-Fock densities                     ... done
Calculating cut-offs                               ... done
Setting up the integral package                    ... done
Initializing the effective Hamiltonian             ... done
Starting the Coulomb interaction                   ... done (   0.0 sec)
Reading the grid                                   ... done
Mapping shells                                     ... done
Starting the XC term evaluation                    ... done (   0.2 sec)
  promolecular density results
     # of electrons  =     54.996882426
     EX              =    -45.741551031
     EC              =     -1.838146247
     EX+EC           =    -47.579697278
Transforming the Hamiltonian                       ... done (   0.0 sec)
Diagonalizing the Hamiltonian                      ... done (   0.0 sec)
Back transforming the eigenvectors                 ... done (   0.0 sec)
Now organizing SCF variables                       ... done
--------------
SCF ITERATIONS
--------------
ITER       Energy         Delta-E        Max-DP      RMS-DP      [F,P]     Damp
               ***  Starting incremental Fock matrix formation  ***
  0   -361.7136017198   0.000000000000 0.10228123  0.00129710  0.2791064 0.7000
  1   -361.7942918527  -0.080690132900 0.09533706  0.00104765  0.1094012 0.7000
                               ***Turning on DIIS***
  2   -361.8239698427  -0.029677989971 0.15007188  0.00180539  0.0328652 0.0000
  3   -361.8767422464  -0.052772403683 0.07041314  0.00071405  0.0537545 0.0000
  4   -361.8851983829  -0.008456136525 0.01763523  0.00022669  0.0189182 0.0000
  5   -361.8858685798  -0.000670196930 0.00596859  0.00007853  0.0043169 0.0000
                      *** Initiating the SOSCF procedure ***
                           *** Shutting down DIIS ***
                      *** Re-Reading the Fockian *** 
                      *** Removing any level shift *** 
ITER      Energy       Delta-E        Grad      Rot      Max-DP    RMS-DP
  6   -361.88592055  -0.0000519677  0.000245  0.000245  0.001287  0.000023
               *** Restarting incremental Fock matrix formation ***
  7   -361.88592425  -0.0000036985  0.000106  0.000206  0.000688  0.000014
  8   -361.88592380   0.0000004447  0.000150  0.000207  0.000363  0.000006
  9   -361.88592526  -0.0000014630  0.000030  0.000072  0.000092  0.000002
 10   -361.88592522   0.0000000446  0.000063  0.000053  0.000071  0.000001
 11   -361.88592528  -0.0000000637  0.000003  0.000003  0.000026  0.000000
                  ***Gradient check signals convergence***
              ***Rediagonalizing the Fockian in SOSCF/NRSCF***

               *****************************************************
               *                     SUCCESS                       *
               *           SCF CONVERGED AFTER  12 CYCLES          *
               *****************************************************

Setting up the final grid:

General Integration Accuracy     IntAcc      ...  5.010
Radial Grid Type                 RadialGrid  ... Gauss-Chebyshev
Angular Grid (max. acc.)         AngularGrid ... Lebedev-434
Angular grid pruning method      GridPruning ... 3 (G Style)
Weight generation scheme         WeightScheme... Becke
Basis function cutoff            BFCut       ...    1.0000e-11
Integration weight cutoff        WCut        ...    1.0000e-14
Grids for H and He will be reduced by one unit

# of grid points (after initial pruning)     ... 128602 (   0.0 sec)
# of grid points (after weights+screening)   ... 118255 (   0.1 sec)
nearest neighbour list constructed           ...    0.0 sec
Grid point re-assignment to atoms done       ...    0.0 sec
Grid point division into batches done        ...    0.9 sec
Reduced shell lists constructed in    1.2 sec

Total number of grid points                  ...   118255
Total number of batches                      ...     1854
Average number of points per batch           ...       63
Average number of grid points per atom       ...     7884
Average number of shells per batch           ...    82.48 (75.67%)
Average number of basis functions per batch  ...   201.02 (75.86%)
Average number of large shells per batch     ...    67.94 (82.37%)
Average number of large basis fcns per batch ...   164.92 (82.04%)
Maximum spatial batch extension              ...   3.27,  2.22,  3.10 au
Average spatial batch extension              ...   0.10,  0.10,  0.10 au

Final grid set up in    1.3 sec
Final integration                            ... done (   1.2 sec)
Change in XC energy                          ...     0.000314256
Integrated number of electrons               ...    53.999998265
Previous integrated no of electrons          ...    54.000399773
Total Energy       :         -361.88561103 Eh           -9847.40811 eV
  Last Energy change         ...    3.9313e-10  Tolerance :   1.0000e-08
  Last MAX-Density change    ...    1.0385e-05  Tolerance :   1.0000e-07
             **** THE GBW FILE WAS UPDATED (6070_+.gbw) ****
             **** DENSITY FILE WAS UPDATED (6070_+.scfp.tmp) ****
             **** ENERGY FILE WAS UPDATED (6070_+.en.tmp) ****
Total SCF time: 0 days 0 hours 1 min 1 sec 
           ************************************************************
           *              Shut down parallel processing               *
           ************************************************************

-------------------------   --------------------
FINAL SINGLE POINT ENERGY      -361.885611027015
-------------------------   --------------------



           ************************************************************
           *        Program running with 8 parallel MPI-processes     *
           *              working on a common directory               *
           ************************************************************
------------------------------------------------------------------------------
                         ORCA SCF GRADIENT CALCULATION
------------------------------------------------------------------------------

Gradient of the Kohn-Sham DFT energy:
Kohn-Sham wavefunction type      ... RKS
Hartree-Fock exchange scaling    ...    0.250
Number of operators              ...    1
Number of atoms                  ...   15
Basis set dimensions             ...  265
Integral neglect threshold       ... 2.5e-11
Integral primitive cutoff        ... 2.5e-12

Nuclear repulsion gradient       ... done
One Electron Gradient            ... done
Pre-screening matrix             ... done
Starting the two electron gradient:
Two electron gradient done
Exchange-correlation gradient    ... done

------------------
CARTESIAN GRADIENT
------------------

   1   N   :    0.000096834   -0.000120327    0.000189867
   2   C   :    0.000103840    0.000186255   -0.000137098
   3   C   :    0.000072357    0.000009605   -0.000052672
   4   C   :   -0.000049586   -0.000026045   -0.000126540
   5   O   :   -0.000003830    0.000045363    0.000095003
   6   C   :   -0.000054639   -0.000043391    0.000131910
   7   O   :    0.000067794   -0.000011228   -0.000074938
   8   H   :   -0.000134011   -0.000040745   -0.000103678
   9   H   :    0.000047463   -0.000006487   -0.000052989
  10   H   :   -0.000043842    0.000070375    0.000027888
  11   H   :   -0.000063885   -0.000017783    0.000062486
  12   H   :   -0.000022026   -0.000062389    0.000026616
  13   H   :    0.000002775   -0.000023688    0.000044473
  14   H   :   -0.000006845    0.000048623   -0.000005970
  15   H   :   -0.000012399   -0.000008136   -0.000024360

Norm of the cartesian gradient     ...    0.000507394
RMS gradient                       ...    0.000075638
MAX gradient                       ...    0.000189867

-------
TIMINGS
-------

Total SCF gradient time            ...       26.379 sec

One electron gradient       ....       0.098 sec  (  0.4%)
Prescreening matrices       ....       0.341 sec  (  1.3%)
Two electron gradient       ....      21.920 sec  ( 83.1%)
XC gradient                 ....       3.261 sec  ( 12.4%)
           ************************************************************
           *              Shut down parallel processing               *
           ************************************************************
------------------------------------------------------------------------------
                         ORCA GEOMETRY RELAXATION STEP
------------------------------------------------------------------------------

Reading the OPT-File                    .... done
Getting information on internals        .... done
Copying old internal coords+grads       .... done
Making the new internal coordinates     .... (new redundants).... done
Validating the new internal coordinates .... (new redundants).... done
Calculating the B-matrix                .... done
Calculating the G,G- and P matrices     .... done
Transforming gradient to internals      .... done
Projecting the internal gradient        .... done
Number of atoms                         ....  15
Number of internal coordinates          ....  81
Current Energy                          ....  -361.885611027 Eh
Current gradient norm                   ....     0.000507394 Eh/bohr
Maximum allowed component of the step   ....  0.300
Current trust radius                    ....  0.300
Evaluating the initial hessian          ....  (Almloef) done
Projecting the Hessian                  .... done
Forming the augmented Hessian           .... done
Diagonalizing the augmented Hessian     .... done
Last element of RFO vector              ....  0.999989650
Lowest eigenvalues of augmented Hessian:
 -0.000000809  0.014519398  0.025275546  0.027804593  0.027826773
Length of the computed step             ....  0.004549735
The final length of the internal step   ....  0.004549735
Converting the step to cartesian space:
 Initial RMS(Int)=    0.0005055261
Transforming coordinates:
 Iter   0:  RMS(Cart)=    0.0016512804 RMS(Int)=    0.0005055076
 Iter   1:  RMS(Cart)=    0.0000018232 RMS(Int)=    0.0000010116
 Iter   2:  RMS(Cart)=    0.0000000033 RMS(Int)=    0.0000000010
done
Storing new coordinates                 .... done

                                .--------------------.
          ----------------------|Geometry convergence|---------------------
          Item                value                 Tolerance   Converged
          -----------------------------------------------------------------
          RMS gradient        0.00003965            0.00003000      NO
          MAX gradient        0.00017261            0.00010000      NO
          RMS step            0.00050553            0.00060000      YES
          MAX step            0.00240128            0.00100000      NO
          ....................................................
          Max(Bonds)      0.0002      Max(Angles)    0.02
          Max(Dihed)        0.14      Max(Improp)    0.00
          -----------------------------------------------------------------

The optimization has not yet converged - more geometry cycles are needed


    ---------------------------------------------------------------------------
                         Redundant Internal Coordinates
                            (Angstroem and degrees)

        Definition                    Value    dE/dq     Step     New-Value
    ----------------------------------------------------------------------------
     1. B(C   1,N   0)                1.4824 -0.000101  0.0001    1.4825   
     2. B(C   2,C   1)                1.4952  0.000058 -0.0001    1.4951   
     3. B(C   3,C   1)                1.4830 -0.000010  0.0000    1.4830   
     4. B(C   3,C   2)                1.4955 -0.000012  0.0000    1.4956   
     5. B(O   4,C   3)                1.3886  0.000125 -0.0001    1.3885   
     6. B(C   5,O   4)                1.3639  0.000017 -0.0000    1.3639   
     7. B(O   6,C   5)                1.1867  0.000098 -0.0000    1.1866   
     8. B(H   7,N   0)                1.0245  0.000173 -0.0002    1.0243   
     9. B(H   8,N   0)                1.0230  0.000068 -0.0001    1.0229   
    10. B(H   9,N   0)                1.0242  0.000084 -0.0001    1.0241   
    11. B(H  10,C   1)                1.0827  0.000089 -0.0001    1.0826   
    12. B(H  11,C   2)                1.0829  0.000070 -0.0001    1.0828   
    13. B(H  12,C   2)                1.0845 -0.000033  0.0000    1.0846   
    14. B(H  13,C   3)                1.0865  0.000023 -0.0000    1.0865   
    15. B(H  14,C   5)                1.0958 -0.000024  0.0000    1.0958   
    16. A(C   1,N   0,H   8)          111.32  0.000011   -0.00    111.31   
    17. A(H   8,N   0,H   9)          107.45  0.000011   -0.00    107.45   
    18. A(C   1,N   0,H   7)          111.22  0.000020   -0.00    111.22   
    19. A(H   7,N   0,H   8)          107.30 -0.000014    0.00    107.30   
    20. A(H   7,N   0,H   9)          107.98 -0.000015    0.01    107.98   
    21. A(C   1,N   0,H   9)          111.38 -0.000013    0.00    111.38   
    22. A(C   2,C   1,C   3)           60.29 -0.000015    0.00     60.29   
    23. A(N   0,C   1,H  10)          111.38 -0.000016    0.00    111.39   
    24. A(C   3,C   1,H  10)          118.88 -0.000016    0.01    118.89   
    25. A(C   2,C   1,H  10)          119.20 -0.000016    0.01    119.20   
    26. A(N   0,C   1,C   3)          118.96  0.000043   -0.02    118.94   
    27. A(N   0,C   1,C   2)          119.64  0.000026    0.00    119.64   
    28. A(H  11,C   2,H  12)          114.94 -0.000018    0.00    114.94   
    29. A(C   3,C   2,H  12)          117.14  0.000023   -0.00    117.14   
    30. A(C   1,C   2,H  12)          119.90  0.000023   -0.01    119.89   
    31. A(C   3,C   2,H  11)          118.73 -0.000008    0.00    118.73   
    32. A(C   1,C   2,H  11)          115.62 -0.000001    0.00    115.62   
    33. A(C   1,C   2,C   3)           59.45 -0.000013    0.00     59.45   
    34. A(C   2,C   3,O   4)          119.69 -0.000038    0.01    119.71   
    35. A(C   1,C   3,O   4)          114.70 -0.000026    0.00    114.70   
    36. A(C   2,C   3,H  13)          117.23  0.000006   -0.00    117.23   
    37. A(C   1,C   3,H  13)          119.93 -0.000000   -0.00    119.93   
    38. A(C   1,C   3,C   2)           60.26  0.000029   -0.00     60.26   
    39. A(O   4,C   3,H  13)          114.52  0.000025   -0.00    114.52   
    40. A(C   3,O   4,C   5)          114.51  0.000032   -0.00    114.50   
    41. A(O   6,C   5,H  14)          127.13  0.000030   -0.00    127.13   
    42. A(O   4,C   5,H  14)          108.82  0.000003   -0.00    108.82   
    43. A(O   4,C   5,O   6)          124.05 -0.000033    0.00    124.05   
    44. D(C   2,C   1,N   0,H   9)   -156.42 -0.000017    0.01   -156.41   
    45. D(H  10,C   1,N   0,H   8)    177.84  0.000012   -0.02    177.82   
    46. D(C   2,C   1,N   0,H   8)    -36.52 -0.000005    0.00    -36.51   
    47. D(C   3,C   1,N   0,H   8)     33.79  0.000004   -0.00     33.79   
    48. D(C   2,C   1,N   0,H   7)     83.08 -0.000002    0.00     83.08   
    49. D(H  10,C   1,N   0,H   7)    -62.56  0.000015   -0.02    -62.58   
    50. D(C   3,C   1,N   0,H   9)    -86.11 -0.000008    0.00    -86.10   
    51. D(C   3,C   1,N   0,H   7)    153.39  0.000008   -0.00    153.39   
    52. D(H  10,C   1,N   0,H   9)     57.94 -0.000000   -0.01     57.93   
    53. D(C   3,C   2,C   1,N   0)    108.46  0.000036   -0.03    108.44   
    54. D(H  11,C   2,C   1,N   0)   -141.90  0.000023   -0.03   -141.93   
    55. D(H  11,C   2,C   1,H  10)      1.09  0.000006   -0.00      1.08   
    56. D(C   3,C   2,C   1,H  10)   -108.55  0.000019   -0.00   -108.55   
    57. D(H  12,C   2,C   1,N   0)      2.70  0.000024   -0.03      2.67   
    58. D(H  11,C   2,C   1,C   3)    109.64 -0.000013    0.00    109.64   
    59. D(H  12,C   2,C   1,H  10)    145.69  0.000007   -0.01    145.68   
    60. D(H  12,C   2,C   1,C   3)   -105.76 -0.000012   -0.00   -105.77   
    61. D(O   4,C   3,C   2,H  12)   -146.46  0.000011   -0.02   -146.47   
    62. D(O   4,C   3,C   2,H  11)     -1.23  0.000000   -0.01     -1.24   
    63. D(O   4,C   3,C   2,C   1)    103.19 -0.000003   -0.01    103.18   
    64. D(C   1,C   3,C   2,H  11)   -104.42  0.000003   -0.00   -104.42   
    65. D(H  13,C   3,C   1,H  10)   -144.72  0.000001   -0.00   -144.72   
    66. D(H  13,C   3,C   1,C   2)    106.22  0.000019   -0.01    106.21   
    67. D(H  13,C   3,C   1,N   0)     -3.35  0.000011   -0.02     -3.37   
    68. D(O   4,C   3,C   1,H  10)     -2.36  0.000007   -0.01     -2.36   
    69. D(C   1,C   3,C   2,H  12)    110.36  0.000013   -0.01    110.35   
    70. D(O   4,C   3,C   1,C   2)   -111.42  0.000025   -0.01   -111.44   
    71. D(O   4,C   3,C   1,N   0)    139.01  0.000017   -0.02    138.98   
    72. D(C   2,C   3,C   1,H  10)    109.07 -0.000019    0.01    109.07   
    73. D(H  13,C   3,C   2,C   1)   -110.62 -0.000007   -0.00   -110.62   
    74. D(C   2,C   3,C   1,N   0)   -109.57 -0.000008   -0.01   -109.58   
    75. D(H  13,C   3,C   2,H  12)     -0.27  0.000006   -0.01     -0.28   
    76. D(H  13,C   3,C   2,H  11)    144.95 -0.000004   -0.00    144.95   
    77. D(C   5,O   4,C   3,H  13)    -35.02 -0.000057    0.13    -34.88   
    78. D(C   5,O   4,C   3,C   2)    112.04 -0.000067    0.14    112.18   
    79. D(C   5,O   4,C   3,C   1)   -179.45 -0.000055    0.14   -179.31   
    80. D(H  14,C   5,O   4,C   3)   -179.10  0.000019   -0.04   -179.14   
    81. D(O   6,C   5,O   4,C   3)      1.45 -0.000028    0.06      1.50   
    ----------------------------------------------------------------------------

         *************************************************************
         *                GEOMETRY OPTIMIZATION CYCLE   2            *
         *************************************************************
---------------------------------
CARTESIAN COORDINATES (ANGSTROEM)
---------------------------------
  N     -1.589337    0.923936   -1.981922
  C     -1.358355    0.052604   -0.804958
  C     -0.513734   -1.172952   -0.946602
  C     -0.007865    0.015894   -0.193314
  O     -0.000076   -0.001529    1.195064
  C      1.244099   -0.020307    1.753511
  O      2.253000    0.003731    1.129318
  H     -2.352999    0.566647   -2.563543
  H     -0.756465    0.978503   -2.573293
  H     -1.827817    1.878731   -1.698536
  H     -2.226180    0.024178   -0.158439
  H     -0.847894   -2.038899   -0.389014
  H     -0.039251   -1.395551   -1.896160
  H      0.805828    0.579188   -0.641739
  H      1.141589   -0.048465    2.844141

----------------------------
CARTESIAN COORDINATES (A.U.)
----------------------------
  NO LB      ZA    FRAG    MASS        X           Y           Z
   0 N     7.0000    0    14.007         -3.003412586546037          1.745985874885634         -3.745289602238884
   1 C     6.0000    0    12.011         -2.566918558298978          0.099407096243061         -1.521150085948630
   2 C     6.0000    0    12.011         -0.970816325473006         -2.216558092185740         -1.788818737233192
   3 C     6.0000    0    12.011         -0.014863483619695          0.030036178787145         -0.365311413908935
   4 O     8.0000    0    15.999         -0.000144177230501         -0.002890205597146          2.258342840476536
   5 C     6.0000    0    12.011          2.351007296161841         -0.038375020602845          3.313655052976002
   6 O     8.0000    0    15.999          4.257553327968096          0.007050124977251          2.134101814609129
   7 H     1.0000    0     1.008         -4.446523223946768          1.070806826312480         -4.844393322821842
   8 H     1.0000    0     1.008         -1.429512075186338          1.849103578239897         -4.862819976051992
   9 H     1.0000    0     1.008         -3.454073989778536          3.550287784004946         -3.209767739250213
  10 H     1.0000    0     1.008         -4.206871151221595          0.045688883972094         -0.299406104149196
  11 H     1.0000    0     1.008         -1.602288338685321         -3.852961394376468         -0.735130703724373
  12 H     1.0000    0     1.008         -0.074174466370082         -2.637209936028634         -3.583222471599593
  13 H     1.0000    0     1.008          1.522793597371765          1.094507371565192         -1.212710439603913
  14 H     1.0000    0     1.008          2.157289995614033         -0.091586478001849          5.374648373108897

--------------------------------
INTERNAL COORDINATES (ANGSTROEM)
--------------------------------
 N      0   0   0   0.000000     0.000     0.000
 C      1   0   0   1.482503     0.000     0.000
 C      2   1   0   1.495137   119.642     0.000
 C      2   1   3   1.482996   118.938    70.304
 O      4   2   1   1.388509   114.697   138.983
 C      5   4   2   1.363888   114.501   180.691
 O      6   5   4   1.186623   124.052     1.504
 H      1   2   3   1.024264   111.220    83.084
 H      1   2   3   1.022924   111.313   323.486
 H      1   2   3   1.024116   111.380   203.593
 H      2   1   3   1.082551   111.387   214.335
 H      3   2   1   1.082789   115.621   218.074
 H      3   2   1   1.084594   119.888     2.670
 H      4   2   1   1.086499   119.930   356.627
 H      6   5   4   1.095800   108.816   180.856

---------------------------
INTERNAL COORDINATES (A.U.)
---------------------------
 N      0   0   0   0.000000     0.000     0.000
 C      1   0   0   2.801526     0.000     0.000
 C      2   1   0   2.825400   119.642     0.000
 C      2   1   3   2.802456   118.938    70.304
 O      4   2   1   2.623902   114.697   138.983
 C      5   4   2   2.577374   114.501   180.691
 O      6   5   4   2.242393   124.052     1.504
 H      1   2   3   1.935578   111.220    83.084
 H      1   2   3   1.933047   111.313   323.486
 H      1   2   3   1.935300   111.380   203.593
 H      2   1   3   2.045724   111.387   214.335
 H      3   2   1   2.046175   115.621   218.074
 H      3   2   1   2.049585   119.888     2.670
 H      4   2   1   2.053186   119.930   356.627
 H      6   5   4   2.070761   108.816   180.856



           ************************************************************
           *        Program running with 8 parallel MPI-processes     *
           *              working on a common directory               *
           ************************************************************
           ************************************************************
           *              Shut down parallel processing               *
           ************************************************************


           ************************************************************
           *        Program running with 8 parallel MPI-processes     *
           *              working on a common directory               *
           ************************************************************

Diagonalization of the overlap matrix:
Smallest eigenvalue                        ... 1.224e-04
Time for diagonalization                   ...    0.026 sec
Threshold for overlap eigenvalues          ... 1.000e-08
Number of eigenvalues below threshold      ... 0
Time for construction of square roots      ...    0.013 sec
Total time needed                          ...    0.039 sec

-------------------
DFT GRID GENERATION
-------------------

General Integration Accuracy     IntAcc      ...  4.340
Radial Grid Type                 RadialGrid  ... Gauss-Chebyshev
Angular Grid (max. acc.)         AngularGrid ... Lebedev-194
Angular grid pruning method      GridPruning ... 3 (G Style)
Weight generation scheme         WeightScheme... Becke
Basis function cutoff            BFCut       ...    1.0000e-11
Integration weight cutoff        WCut        ...    1.0000e-14
Grids for H and He will be reduced by one unit

# of grid points (after initial pruning)     ...  35386 (   0.0 sec)
# of grid points (after weights+screening)   ...  32868 (   0.0 sec)
nearest neighbour list constructed           ...    0.0 sec
Grid point re-assignment to atoms done       ...    0.0 sec
Grid point division into batches done        ...    0.1 sec
Reduced shell lists constructed in    0.2 sec

Total number of grid points                  ...    32868
Total number of batches                      ...      522
Average number of points per batch           ...       62
Average number of grid points per atom       ...     2191
Average number of shells per batch           ...    82.90 (76.05%)
Average number of basis functions per batch  ...   201.82 (76.16%)
Average number of large shells per batch     ...    69.22 (83.51%)
Average number of large basis fcns per batch ...   168.36 (83.42%)
Maximum spatial batch extension              ...   2.68,  2.32,  2.24 au
Average spatial batch extension              ...   0.15,  0.15,  0.15 au

Time for grid setup =    0.201 sec

--------------
SCF ITERATIONS
--------------
ITER       Energy         Delta-E        Max-DP      RMS-DP      [F,P]     Damp
               ***  Starting incremental Fock matrix formation  ***
                      *** Initiating the SOSCF procedure ***
                      *** Re-Reading the Fockian *** 
                      *** Removing any level shift *** 
ITER      Energy       Delta-E        Grad      Rot      Max-DP    RMS-DP
  0   -361.88591985 -361.8859198510  0.000341  0.000341  0.000586  0.000012
               *** Restarting incremental Fock matrix formation ***
  1   -361.88592559  -0.0000057377  0.000117  0.000218  0.000272  0.000005
  2   -361.88592623  -0.0000006436  0.000026  0.000066  0.000055  0.000001
  3   -361.88592624  -0.0000000087  0.000020  0.000026  0.000034  0.000001
  4   -361.88592625  -0.0000000113  0.000010  0.000014  0.000016  0.000000
  5   -361.88592625  -0.0000000005  0.000007  0.000006  0.000014  0.000000
                  ***Gradient check signals convergence***
              ***Rediagonalizing the Fockian in SOSCF/NRSCF***

               *****************************************************
               *                     SUCCESS                       *
               *           SCF CONVERGED AFTER   6 CYCLES          *
               *****************************************************

Setting up the final grid:

General Integration Accuracy     IntAcc      ...  5.010
Radial Grid Type                 RadialGrid  ... Gauss-Chebyshev
Angular Grid (max. acc.)         AngularGrid ... Lebedev-434
Angular grid pruning method      GridPruning ... 3 (G Style)
Weight generation scheme         WeightScheme... Becke
Basis function cutoff            BFCut       ...    1.0000e-11
Integration weight cutoff        WCut        ...    1.0000e-14
Grids for H and He will be reduced by one unit

# of grid points (after initial pruning)     ... 128602 (   0.0 sec)
# of grid points (after weights+screening)   ... 118245 (   0.1 sec)
nearest neighbour list constructed           ...    0.0 sec
Grid point re-assignment to atoms done       ...    0.0 sec
Grid point division into batches done        ...    0.9 sec
Reduced shell lists constructed in    1.2 sec

Total number of grid points                  ...   118245
Total number of batches                      ...     1854
Average number of points per batch           ...       63
Average number of grid points per atom       ...     7883
Average number of shells per batch           ...    82.52 (75.71%)
Average number of basis functions per batch  ...   201.15 (75.90%)
Average number of large shells per batch     ...    68.00 (82.40%)
Average number of large basis fcns per batch ...   165.06 (82.06%)
Maximum spatial batch extension              ...   3.41,  2.02,  3.17 au
Average spatial batch extension              ...   0.10,  0.10,  0.10 au

Final grid set up in    1.3 sec
Final integration                            ... done (   0.7 sec)
Change in XC energy                          ...     0.000314729
Integrated number of electrons               ...    53.999998494
Previous integrated no of electrons          ...    54.000401383
Total Energy       :         -361.88561152 Eh           -9847.40812 eV
  Last Energy change         ...   -1.3544e-09  Tolerance :   1.0000e-08
  Last MAX-Density change    ...    5.2178e-06  Tolerance :   1.0000e-07
             **** THE GBW FILE WAS UPDATED (6070_+.gbw) ****
             **** DENSITY FILE WAS UPDATED (6070_+.scfp.tmp) ****
             **** ENERGY FILE WAS UPDATED (6070_+.en.tmp) ****
Total SCF time: 0 days 0 hours 0 min 31 sec 
           ************************************************************
           *              Shut down parallel processing               *
           ************************************************************

-------------------------   --------------------
FINAL SINGLE POINT ENERGY      -361.885611524752
-------------------------   --------------------



           ************************************************************
           *        Program running with 8 parallel MPI-processes     *
           *              working on a common directory               *
           ************************************************************
------------------------------------------------------------------------------
                         ORCA SCF GRADIENT CALCULATION
------------------------------------------------------------------------------

Gradient of the Kohn-Sham DFT energy:
Kohn-Sham wavefunction type      ... RKS
Hartree-Fock exchange scaling    ...    0.250
Number of operators              ...    1
Number of atoms                  ...   15
Basis set dimensions             ...  265
Integral neglect threshold       ... 2.5e-11
Integral primitive cutoff        ... 2.5e-12

Nuclear repulsion gradient       ... done
One Electron Gradient            ... done
Pre-screening matrix             ... done
Starting the two electron gradient:
Two electron gradient done
Exchange-correlation gradient    ... done

------------------
CARTESIAN GRADIENT
------------------

   1   N   :    0.000012870   -0.000044846    0.000061397
   2   C   :    0.000020861    0.000079592   -0.000052830
   3   C   :    0.000025623   -0.000010380    0.000012862
   4   C   :    0.000012942   -0.000037577   -0.000058358
   5   O   :   -0.000026909    0.000136123    0.000050373
   6   C   :   -0.000002389   -0.000254888    0.000012237
   7   O   :   -0.000004621    0.000072160   -0.000023059
   8   H   :    0.000001659    0.000011844   -0.000001263
   9   H   :   -0.000010813   -0.000002068   -0.000014485
  10   H   :   -0.000016044   -0.000001035   -0.000007869
  11   H   :    0.000007414   -0.000020249    0.000014199
  12   H   :    0.000005398   -0.000002319   -0.000002499
  13   H   :    0.000004560   -0.000019230    0.000007536
  14   H   :   -0.000019120    0.000027986    0.000003117
  15   H   :   -0.000011432    0.000064887   -0.000001359

Norm of the cartesian gradient     ...    0.000348639
RMS gradient                       ...    0.000051972
MAX gradient                       ...    0.000254888

-------
TIMINGS
-------

Total SCF gradient time            ...       26.600 sec

One electron gradient       ....       0.095 sec  (  0.4%)
Prescreening matrices       ....       0.394 sec  (  1.5%)
Two electron gradient       ....      22.079 sec  ( 83.0%)
XC gradient                 ....       3.235 sec  ( 12.2%)
           ************************************************************
           *              Shut down parallel processing               *
           ************************************************************
------------------------------------------------------------------------------
                         ORCA GEOMETRY RELAXATION STEP
------------------------------------------------------------------------------

Reading the OPT-File                    .... done
Getting information on internals        .... done
Copying old internal coords+grads       .... done
Making the new internal coordinates     .... (new redundants).... done
Validating the new internal coordinates .... (new redundants).... done
Calculating the B-matrix                .... done
Calculating the G,G- and P matrices     .... done
Transforming gradient to internals      .... done
Projecting the internal gradient        .... done
Number of atoms                         ....  15
Number of internal coordinates          ....  81
Current Energy                          ....  -361.885611525 Eh
Current gradient norm                   ....     0.000348639 Eh/bohr
Maximum allowed component of the step   ....  0.300
Current trust radius                    ....  0.300
Updating the Hessian (BFGS)             .... done
Forming the augmented Hessian           .... done
Diagonalizing the augmented Hessian     .... done
Last element of RFO vector              ....  0.999736964
Lowest eigenvalues of augmented Hessian:
 -0.000003272  0.005547475  0.014533044  0.027800557  0.036166680
Length of the computed step             ....  0.022940771
The final length of the internal step   ....  0.022940771
Converting the step to cartesian space:
 Initial RMS(Int)=    0.0025489746
Transforming coordinates:
 Iter   0:  RMS(Cart)=    0.0067412775 RMS(Int)=    0.0025487622
 Iter   1:  RMS(Cart)=    0.0000307398 RMS(Int)=    0.0000171687
 Iter   2:  RMS(Cart)=    0.0000002781 RMS(Int)=    0.0000001297
 Iter   3:  RMS(Cart)=    0.0000000030 RMS(Int)=    0.0000000019
done
Storing new coordinates                 .... done

                                .--------------------.
          ----------------------|Geometry convergence|---------------------
          Item                value                 Tolerance   Converged
          -----------------------------------------------------------------
          Energy change      -0.00000050            0.00000100      YES
          RMS gradient        0.00002680            0.00003000      YES
          MAX gradient        0.00013003            0.00010000      NO
          RMS step            0.00254897            0.00060000      NO
          MAX step            0.01244643            0.00100000      NO
          ....................................................
          Max(Bonds)      0.0009      Max(Angles)    0.09
          Max(Dihed)        0.71      Max(Improp)    0.00
          -----------------------------------------------------------------

The optimization has not yet converged - more geometry cycles are needed


    ---------------------------------------------------------------------------
                         Redundant Internal Coordinates
                            (Angstroem and degrees)

        Definition                    Value    dE/dq     Step     New-Value
    ----------------------------------------------------------------------------
     1. B(C   1,N   0)                1.4825 -0.000049  0.0006    1.4831   
     2. B(C   2,C   1)                1.4951  0.000027 -0.0003    1.4948   
     3. B(C   3,C   1)                1.4830 -0.000020  0.0001    1.4831   
     4. B(C   3,C   2)                1.4956 -0.000016  0.0001    1.4956   
     5. B(O   4,C   3)                1.3885  0.000035 -0.0005    1.3880   
     6. B(C   5,O   4)                1.3639 -0.000019 -0.0000    1.3639   
     7. B(O   6,C   5)                1.1866  0.000011 -0.0002    1.1864   
     8. B(H   7,N   0)                1.0243 -0.000005 -0.0009    1.0234   
     9. B(H   8,N   0)                1.0229 -0.000001 -0.0003    1.0226   
    10. B(H   9,N   0)                1.0241  0.000001 -0.0004    1.0237   
    11. B(H  10,C   1)                1.0826  0.000003 -0.0005    1.0820   
    12. B(H  11,C   2)                1.0828 -0.000001 -0.0004    1.0824   
    13. B(H  12,C   2)                1.0846 -0.000001  0.0002    1.0848   
    14. B(H  13,C   3)                1.0865 -0.000001 -0.0001    1.0864   
    15. B(H  14,C   5)                1.0958 -0.000003  0.0001    1.0959   
    16. A(C   1,N   0,H   8)          111.31  0.000017   -0.02    111.29   
    17. A(H   8,N   0,H   9)          107.45 -0.000003   -0.02    107.43   
    18. A(C   1,N   0,H   7)          111.22  0.000006   -0.01    111.21   
    19. A(H   7,N   0,H   8)          107.30 -0.000013    0.01    107.31   
    20. A(H   7,N   0,H   9)          107.98 -0.000014    0.03    108.01   
    21. A(C   1,N   0,H   9)          111.38  0.000006    0.01    111.39   
    22. A(C   2,C   1,C   3)           60.29 -0.000008    0.01     60.30   
    23. A(N   0,C   1,H  10)          111.39 -0.000005    0.01    111.40   
    24. A(C   3,C   1,H  10)          118.89 -0.000014    0.03    118.91   
    25. A(C   2,C   1,H  10)          119.20 -0.000016    0.03    119.24   
    26. A(N   0,C   1,C   3)          118.94  0.000024   -0.09    118.84   
    27. A(N   0,C   1,C   2)          119.64  0.000019    0.00    119.65   
    28. A(H  11,C   2,H  12)          114.94 -0.000011    0.02    114.96   
    29. A(C   3,C   2,H  12)          117.14  0.000017   -0.00    117.14   
    30. A(C   1,C   2,H  12)          119.89  0.000017   -0.04    119.85   
    31. A(C   3,C   2,H  11)          118.73 -0.000007    0.00    118.74   
    32. A(C   1,C   2,H  11)          115.62 -0.000003    0.00    115.62   
    33. A(C   1,C   2,C   3)           59.45 -0.000010    0.01     59.46   
    34. A(C   2,C   3,O   4)          119.71 -0.000024    0.05    119.76   
    35. A(C   1,C   3,O   4)          114.70 -0.000027    0.01    114.71   
    36. A(C   2,C   3,H  13)          117.23  0.000006   -0.02    117.21   
    37. A(C   1,C   3,H  13)          119.93  0.000003   -0.00    119.93   
    38. A(C   1,C   3,C   2)           60.26  0.000018   -0.02     60.24   
    39. A(O   4,C   3,H  13)          114.52  0.000018   -0.02    114.50   
    40. A(C   3,O   4,C   5)          114.50 -0.000045   -0.01    114.49   
    41. A(O   6,C   5,H  14)          127.13  0.000025   -0.02    127.11   
    42. A(O   4,C   5,H  14)          108.82  0.000003    0.00    108.82   
    43. A(O   4,C   5,O   6)          124.05 -0.000031    0.02    124.07   
    44. D(C   2,C   1,N   0,H   9)   -156.41 -0.000011    0.05   -156.36   
    45. D(H  10,C   1,N   0,H   8)    177.82  0.000008   -0.08    177.74   
    46. D(C   2,C   1,N   0,H   8)    -36.51 -0.000000    0.01    -36.50   
    47. D(C   3,C   1,N   0,H   8)     33.79  0.000007   -0.01     33.78   
    48. D(C   2,C   1,N   0,H   7)     83.08 -0.000001    0.01     83.09   
    49. D(H  10,C   1,N   0,H   7)    -62.58  0.000006   -0.08    -62.66   
    50. D(C   3,C   1,N   0,H   9)    -86.10 -0.000004    0.02    -86.08   
    51. D(C   3,C   1,N   0,H   7)    153.39  0.000005   -0.02    153.37   
    52. D(H  10,C   1,N   0,H   9)     57.93 -0.000004   -0.04     57.88   
    53. D(C   3,C   2,C   1,N   0)    108.44  0.000018   -0.11    108.32   
    54. D(H  11,C   2,C   1,N   0)   -141.93  0.000008   -0.11   -142.04   
    55. D(H  11,C   2,C   1,H  10)      1.08  0.000005   -0.02      1.07   
    56. D(C   3,C   2,C   1,H  10)   -108.55  0.000014   -0.02   -108.58   
    57. D(H  12,C   2,C   1,N   0)      2.67  0.000009   -0.13      2.54   
    58. D(H  11,C   2,C   1,C   3)    109.64 -0.000009    0.01    109.64   
    59. D(H  12,C   2,C   1,H  10)    145.68  0.000006   -0.04    145.64   
    60. D(H  12,C   2,C   1,C   3)   -105.77 -0.000008   -0.02   -105.79   
    61. D(O   4,C   3,C   2,H  12)   -146.47 -0.000004   -0.06   -146.53   
    62. D(O   4,C   3,C   2,H  11)     -1.24 -0.000009   -0.02     -1.26   
    63. D(O   4,C   3,C   2,C   1)    103.18 -0.000014   -0.01    103.17   
    64. D(C   1,C   3,C   2,H  11)   -104.42  0.000005   -0.00   -104.43   
    65. D(H  13,C   3,C   1,H  10)   -144.72 -0.000003   -0.00   -144.72   
    66. D(H  13,C   3,C   1,C   2)    106.21  0.000014   -0.04    106.17   
    67. D(H  13,C   3,C   1,N   0)     -3.37  0.000003   -0.08     -3.46   
    68. D(O   4,C   3,C   1,H  10)     -2.36 -0.000005   -0.02     -2.38   
    69. D(C   1,C   3,C   2,H  12)    110.35  0.000010   -0.04    110.30   
    70. D(O   4,C   3,C   1,C   2)   -111.44  0.000012   -0.05   -111.48   
    71. D(O   4,C   3,C   1,N   0)    138.98  0.000001   -0.10    138.89   
    72. D(C   2,C   3,C   1,H  10)    109.07 -0.000016    0.03    109.10   
    73. D(H  13,C   3,C   2,C   1)   -110.62 -0.000008   -0.00   -110.63   
    74. D(C   2,C   3,C   1,N   0)   -109.58 -0.000011   -0.05   -109.63   
    75. D(H  13,C   3,C   2,H  12)     -0.28  0.000002   -0.04     -0.32   
    76. D(H  13,C   3,C   2,H  11)    144.95 -0.000003   -0.01    144.95   
    77. D(C   5,O   4,C   3,H  13)    -34.88 -0.000058    0.70    -34.18   
    78. D(C   5,O   4,C   3,C   2)    112.18 -0.000055    0.71    112.89   
    79. D(C   5,O   4,C   3,C   1)   -179.31 -0.000051    0.71   -178.60   
    80. D(H  14,C   5,O   4,C   3)   -179.14 -0.000125    0.22   -178.93   
    81. D(O   6,C   5,O   4,C   3)      1.50  0.000130   -0.17      1.34   
    ----------------------------------------------------------------------------

         *************************************************************
         *                GEOMETRY OPTIMIZATION CYCLE   3            *
         *************************************************************
---------------------------------
CARTESIAN COORDINATES (ANGSTROEM)
---------------------------------
  N     -1.586979    0.925310   -1.980196
  C     -1.359179    0.050205   -0.804635
  C     -0.516825   -1.176301   -0.948052
  C     -0.008581    0.010609   -0.193173
  O     -0.000260   -0.007521    1.194685
  C      1.244235   -0.013537    1.752624
  O      2.252707    0.018608    1.128443
  H     -2.349929    0.571156   -2.563153
  H     -0.753339    0.979448   -2.569935
  H     -1.823265    1.879651   -1.694989
  H     -2.226876    0.022839   -0.158745
  H     -0.852245   -2.042164   -0.391848
  H     -0.043356   -1.397985   -1.898542
  H      0.805950    0.572701   -0.641280
  H      1.142483   -0.047312    2.843311

----------------------------
CARTESIAN COORDINATES (A.U.)
----------------------------
  NO LB      ZA    FRAG    MASS        X           Y           Z
   0 N     7.0000    0    14.007         -2.998956073611126          1.748583266725329         -3.742027445130942
   1 C     6.0000    0    12.011         -2.568476445953425          0.094874560657875         -1.520539883515152
   2 C     6.0000    0    12.011         -0.976658388474811         -2.222887342547633         -1.791558622717418
   3 C     6.0000    0    12.011         -0.016215105705588          0.020047457695871         -0.365044113286839
   4 O     8.0000    0    15.999         -0.000491862631579         -0.014212739248142          2.257626593303631
   5 C     6.0000    0    12.011          2.351262870208614         -0.025580291877149          3.311978464495503
   6 O     8.0000    0    15.999          4.257000045017575          0.035163973607310          2.132447825747215
   7 H     1.0000    0     1.008         -4.440722136203991          1.079328055608475         -4.843657065365811
   8 H     1.0000    0     1.008         -1.423604892471499          1.850887998827962         -4.856472569824539
   9 H     1.0000    0     1.008         -3.445471016635787          3.552024952392715         -3.203065455938565
  10 H     1.0000    0     1.008         -4.208186252445800          0.043159700048623         -0.299984194759130
  11 H     1.0000    0     1.008         -1.610508814872906         -3.859129741616862         -0.740486232399545
  12 H     1.0000    0     1.008         -0.081930148914919         -2.641809434870659         -3.587724877046561
  13 H     1.0000    0     1.008          1.523024327042640          1.082248223085384         -1.211843113703160
  14 H     1.0000    0     1.008          2.158979736411482         -0.089406046294081          5.373078174781114

--------------------------------
INTERNAL COORDINATES (ANGSTROEM)
--------------------------------
 N      0   0   0   0.000000     0.000     0.000
 C      1   0   0   1.483120     0.000     0.000
 C      2   1   0   1.494807   119.646     0.000
 C      2   1   3   1.483095   118.843    70.278
 O      4   2   1   1.388001   114.712   138.885
 C      5   4   2   1.363855   114.493   181.403
 O      6   5   4   1.186445   124.074     1.338
 H      1   2   3   1.023405   111.212    83.091
 H      1   2   3   1.022584   111.293   323.498
 H      1   2   3   1.023689   111.389   203.639
 H      2   1   3   1.082045   111.401   214.245
 H      3   2   1   1.082398   115.622   217.965
 H      3   2   1   1.084781   119.848     2.537
 H      4   2   1   1.086373   119.928   356.543
 H      6   5   4   1.095944   108.817   181.072

---------------------------
INTERNAL COORDINATES (A.U.)
---------------------------
 N      0   0   0   0.000000     0.000     0.000
 C      1   0   0   2.802690     0.000     0.000
 C      2   1   0   2.824775   119.646     0.000
 C      2   1   3   2.802643   118.843    70.278
 O      4   2   1   2.622942   114.712   138.885
 C      5   4   2   2.577312   114.493   181.403
 O      6   5   4   2.242056   124.074     1.338
 H      1   2   3   1.933954   111.212    83.091
 H      1   2   3   1.932404   111.293   323.498
 H      1   2   3   1.934492   111.389   203.639
 H      2   1   3   2.044769   111.401   214.245
 H      3   2   1   2.045436   115.622   217.965
 H      3   2   1   2.049938   119.848     2.537
 H      4   2   1   2.052948   119.928   356.543
 H      6   5   4   2.071033   108.817   181.072



           ************************************************************
           *        Program running with 8 parallel MPI-processes     *
           *              working on a common directory               *
           ************************************************************
           ************************************************************
           *              Shut down parallel processing               *
           ************************************************************


           ************************************************************
           *        Program running with 8 parallel MPI-processes     *
           *              working on a common directory               *
           ************************************************************

Diagonalization of the overlap matrix:
Smallest eigenvalue                        ... 1.228e-04
Time for diagonalization                   ...    0.022 sec
Threshold for overlap eigenvalues          ... 1.000e-08
Number of eigenvalues below threshold      ... 0
Time for construction of square roots      ...    0.013 sec
Total time needed                          ...    0.035 sec

-------------------
DFT GRID GENERATION
-------------------

General Integration Accuracy     IntAcc      ...  4.340
Radial Grid Type                 RadialGrid  ... Gauss-Chebyshev
Angular Grid (max. acc.)         AngularGrid ... Lebedev-194
Angular grid pruning method      GridPruning ... 3 (G Style)
Weight generation scheme         WeightScheme... Becke
Basis function cutoff            BFCut       ...    1.0000e-11
Integration weight cutoff        WCut        ...    1.0000e-14
Grids for H and He will be reduced by one unit

# of grid points (after initial pruning)     ...  35386 (   0.0 sec)
# of grid points (after weights+screening)   ...  32862 (   0.0 sec)
nearest neighbour list constructed           ...    0.0 sec
Grid point re-assignment to atoms done       ...    0.0 sec
Grid point division into batches done        ...    0.1 sec
Reduced shell lists constructed in    0.2 sec

Total number of grid points                  ...    32862
Total number of batches                      ...      522
Average number of points per batch           ...       62
Average number of grid points per atom       ...     2191
Average number of shells per batch           ...    82.84 (76.00%)
Average number of basis functions per batch  ...   201.73 (76.13%)
Average number of large shells per batch     ...    69.39 (83.77%)
Average number of large basis fcns per batch ...   168.79 (83.67%)
Maximum spatial batch extension              ...   2.68,  2.34,  2.34 au
Average spatial batch extension              ...   0.15,  0.15,  0.15 au

Time for grid setup =    0.201 sec

--------------
SCF ITERATIONS
--------------
ITER       Energy         Delta-E        Max-DP      RMS-DP      [F,P]     Damp
               ***  Starting incremental Fock matrix formation  ***
                      *** Initiating the SOSCF procedure ***
                      *** Re-Reading the Fockian *** 
                      *** Removing any level shift *** 
ITER      Energy       Delta-E        Grad      Rot      Max-DP    RMS-DP
  0   -361.88584010 -361.8858401003  0.001141  0.001141  0.002140  0.000048
               *** Restarting incremental Fock matrix formation ***
  1   -361.88591744  -0.0000773384  0.000359  0.000741  0.001065  0.000020
  2   -361.88592627  -0.0000088273  0.000085  0.000236  0.000298  0.000005
  3   -361.88592635  -0.0000000845  0.000091  0.000110  0.000151  0.000003
  4   -361.88592653  -0.0000001766  0.000039  0.000049  0.000047  0.000001
  5   -361.88592654  -0.0000000080  0.000028  0.000021  0.000035  0.000001
  6   -361.88592656  -0.0000000244  0.000005  0.000010  0.000016  0.000000
  7   -361.88592656  -0.0000000016  0.000004  0.000003  0.000007  0.000000
                  ***Gradient check signals convergence***
              ***Rediagonalizing the Fockian in SOSCF/NRSCF***

               *****************************************************
               *                     SUCCESS                       *
               *           SCF CONVERGED AFTER   8 CYCLES          *
               *****************************************************

Setting up the final grid:

General Integration Accuracy     IntAcc      ...  5.010
Radial Grid Type                 RadialGrid  ... Gauss-Chebyshev
Angular Grid (max. acc.)         AngularGrid ... Lebedev-434
Angular grid pruning method      GridPruning ... 3 (G Style)
Weight generation scheme         WeightScheme... Becke
Basis function cutoff            BFCut       ...    1.0000e-11
Integration weight cutoff        WCut        ...    1.0000e-14
Grids for H and He will be reduced by one unit

# of grid points (after initial pruning)     ... 128602 (   0.0 sec)
# of grid points (after weights+screening)   ... 118237 (   0.1 sec)
nearest neighbour list constructed           ...    0.0 sec
Grid point re-assignment to atoms done       ...    0.0 sec
Grid point division into batches done        ...    0.9 sec
Reduced shell lists constructed in    1.2 sec

Total number of grid points                  ...   118237
Total number of batches                      ...     1853
Average number of points per batch           ...       63
Average number of grid points per atom       ...     7882
Average number of shells per batch           ...    82.52 (75.71%)
Average number of basis functions per batch  ...   201.18 (75.92%)
Average number of large shells per batch     ...    68.02 (82.43%)
Average number of large basis fcns per batch ...   165.20 (82.11%)
Maximum spatial batch extension              ...   3.41,  1.86,  3.18 au
Average spatial batch extension              ...   0.10,  0.10,  0.10 au

Final grid set up in    1.3 sec
Final integration                            ... done (   0.7 sec)
Change in XC energy                          ...     0.000316288
Integrated number of electrons               ...    53.999999442
Previous integrated no of electrons          ...    54.000406394
Total Energy       :         -361.88561027 Eh           -9847.40809 eV
  Last Energy change         ...   -7.2566e-10  Tolerance :   1.0000e-08
  Last MAX-Density change    ...    2.8003e-06  Tolerance :   1.0000e-07
             **** THE GBW FILE WAS UPDATED (6070_+.gbw) ****
             **** DENSITY FILE WAS UPDATED (6070_+.scfp.tmp) ****
             **** ENERGY FILE WAS UPDATED (6070_+.en.tmp) ****
Total SCF time: 0 days 0 hours 0 min 40 sec 
           ************************************************************
           *              Shut down parallel processing               *
           ************************************************************

-------------------------   --------------------
FINAL SINGLE POINT ENERGY      -361.885610273851
-------------------------   --------------------



           ************************************************************
           *        Program running with 8 parallel MPI-processes     *
           *              working on a common directory               *
           ************************************************************
------------------------------------------------------------------------------
                         ORCA SCF GRADIENT CALCULATION
------------------------------------------------------------------------------

Gradient of the Kohn-Sham DFT energy:
Kohn-Sham wavefunction type      ... RKS
Hartree-Fock exchange scaling    ...    0.250
Number of operators              ...    1
Number of atoms                  ...   15
Basis set dimensions             ...  265
Integral neglect threshold       ... 2.5e-11
Integral primitive cutoff        ... 2.5e-12

Nuclear repulsion gradient       ... done
One Electron Gradient            ... done
Pre-screening matrix             ... done
Starting the two electron gradient:
Two electron gradient done
Exchange-correlation gradient    ... done

------------------
CARTESIAN GRADIENT
------------------

   1   N   :   -0.000312748    0.000287728   -0.000468589
   2   C   :   -0.000330206   -0.000403420    0.000302890
   3   C   :   -0.000166876   -0.000090574    0.000245003
   4   C   :    0.000261374   -0.000081999    0.000253510
   5   O   :   -0.000136954    0.000046405   -0.000182387
   6   C   :    0.000191773    0.000633709   -0.000415565
   7   O   :   -0.000254125   -0.000259713    0.000175041
   8   H   :    0.000531033    0.000204118    0.000403232
   9   H   :   -0.000235970    0.000019340    0.000142668
  10   H   :    0.000103463   -0.000281681   -0.000147805
  11   H   :    0.000286122   -0.000027837   -0.000176971
  12   H   :    0.000109788    0.000232834   -0.000112445
  13   H   :    0.000005340    0.000008880   -0.000144481
  14   H   :   -0.000057034   -0.000044587    0.000043140
  15   H   :    0.000005021   -0.000243202    0.000082758

Norm of the cartesian gradient     ...    0.001669887
RMS gradient                       ...    0.000248932
MAX gradient                       ...    0.000633709

-------
TIMINGS
-------

Total SCF gradient time            ...       26.532 sec

One electron gradient       ....       0.094 sec  (  0.4%)
Prescreening matrices       ....       0.394 sec  (  1.5%)
Two electron gradient       ....      22.017 sec  ( 83.0%)
XC gradient                 ....       3.248 sec  ( 12.2%)
           ************************************************************
           *              Shut down parallel processing               *
           ************************************************************
------------------------------------------------------------------------------
                         ORCA GEOMETRY RELAXATION STEP
------------------------------------------------------------------------------

Reading the OPT-File                    .... done
Getting information on internals        .... done
Copying old internal coords+grads       .... done
Making the new internal coordinates     .... (new redundants).... done
Validating the new internal coordinates .... (new redundants).... done
Calculating the B-matrix                .... done
Calculating the G,G- and P matrices     .... done
Transforming gradient to internals      .... done
Projecting the internal gradient        .... done
Number of atoms                         ....  15
Number of internal coordinates          ....  81
Current Energy                          ....  -361.885610274 Eh
Current gradient norm                   ....     0.001669887 Eh/bohr
Maximum allowed component of the step   ....  0.300
Current trust radius                    ....  0.300
Updating the Hessian (BFGS)             .... done
Forming the augmented Hessian           .... done
Diagonalizing the augmented Hessian     .... done
Last element of RFO vector              ....  0.999988396
Lowest eigenvalues of augmented Hessian:
 -0.000004756  0.005008514  0.014530202  0.027836168  0.036350277
Length of the computed step             ....  0.004817600
The final length of the internal step   ....  0.004817600
Converting the step to cartesian space:
 Initial RMS(Int)=    0.0005352889
Transforming coordinates:
 Iter   0:  RMS(Cart)=    0.0008170559 RMS(Int)=    0.0005352833
 Iter   1:  RMS(Cart)=    0.0000013490 RMS(Int)=    0.0000008739
 Iter   2:  RMS(Cart)=    0.0000000005 RMS(Int)=    0.0000000003
done
Storing new coordinates                 .... done

                                .--------------------.
          ----------------------|Geometry convergence|---------------------
          Item                value                 Tolerance   Converged
          -----------------------------------------------------------------
          Energy change       0.00000125            0.00000100      NO
          RMS gradient        0.00014854            0.00003000      NO
          MAX gradient        0.00069666            0.00010000      NO
          RMS step            0.00053529            0.00060000      YES
          MAX step            0.00273932            0.00100000      NO
          ....................................................
          Max(Bonds)      0.0006      Max(Angles)    0.03
          Max(Dihed)        0.16      Max(Improp)    0.00
          -----------------------------------------------------------------

The optimization has not yet converged - more geometry cycles are needed


    ---------------------------------------------------------------------------
                         Redundant Internal Coordinates
                            (Angstroem and degrees)

        Definition                    Value    dE/dq     Step     New-Value
    ----------------------------------------------------------------------------
     1. B(C   1,N   0)                1.4831  0.000178 -0.0002    1.4829   
     2. B(C   2,C   1)                1.4948 -0.000114  0.0001    1.4949   
     3. B(C   3,C   1)                1.4831 -0.000040  0.0000    1.4831   
     4. B(C   3,C   2)                1.4956 -0.000008  0.0000    1.4956   
     5. B(O   4,C   3)                1.3880 -0.000346  0.0002    1.3882   
     6. B(C   5,O   4)                1.3639 -0.000116  0.0001    1.3639   
     7. B(O   6,C   5)                1.1864 -0.000314  0.0001    1.1865   
     8. B(H   7,N   0)                1.0234 -0.000697  0.0006    1.0240   
     9. B(H   8,N   0)                1.0226 -0.000274  0.0002    1.0228   
    10. B(H   9,N   0)                1.0237 -0.000327  0.0003    1.0239   
    11. B(H  10,C   1)                1.0820 -0.000334  0.0003    1.0823   
    12. B(H  11,C   2)                1.0824 -0.000278  0.0002    1.0826   
    13. B(H  12,C   2)                1.0848  0.000127 -0.0001    1.0847   
    14. B(H  13,C   3)                1.0864 -0.000084  0.0001    1.0865   
    15. B(H  14,C   5)                1.0959  0.000089 -0.0001    1.0959   
    16. A(C   1,N   0,H   8)          111.29  0.000037   -0.00    111.29   
    17. A(H   8,N   0,H   9)          107.43 -0.000061    0.01    107.43   
    18. A(C   1,N   0,H   7)          111.21 -0.000060    0.01    111.22   
    19. A(H   7,N   0,H   8)          107.31 -0.000003    0.00    107.31   
    20. A(H   7,N   0,H   9)          108.01  0.000002   -0.00    108.01   
    21. A(C   1,N   0,H   9)          111.39  0.000081   -0.01    111.38   
    22. A(C   2,C   1,C   3)           60.30  0.000029   -0.00     60.29   
    23. A(N   0,C   1,H  10)          111.40  0.000047   -0.01    111.39   
    24. A(C   3,C   1,H  10)          118.91 -0.000002   -0.00    118.91   
    25. A(C   2,C   1,H  10)          119.24 -0.000008   -0.00    119.24   
    26. A(N   0,C   1,C   3)          118.84 -0.000068    0.03    118.87   
    27. A(N   0,C   1,C   2)          119.65 -0.000019   -0.01    119.63   
    28. A(H  11,C   2,H  12)          114.96  0.000021   -0.00    114.96   
    29. A(C   3,C   2,H  12)          117.14 -0.000015   -0.00    117.13   
    30. A(C   1,C   2,H  12)          119.85 -0.000011    0.01    119.86   
[...]
      2      -0.010264   0.038976   0.025287   0.008062   0.074601  -0.036017
      3       0.016129  -0.026220   0.040639  -0.089381   0.042581   0.008644
      4      -0.028613   0.031992  -0.034380   0.111911   0.027779  -0.012852
      5       0.010436   0.020672  -0.064031   0.130276  -0.294469   0.003998
      6      -0.025937   0.055333   0.009152  -0.120527  -0.051783   0.010235
      7       0.031295  -0.058069  -0.017094   0.173725   0.017725  -0.011367
      8       0.003096  -0.054719   0.011374   0.016202   0.249300  -0.017399
      9      -0.000323  -0.002400  -0.000246  -0.000876  -0.000233   0.000580
     10       0.005325   0.005128   0.005307   0.012923   0.010496  -0.003563
     11       0.000227  -0.001368   0.004558  -0.024043  -0.013989   0.016293
     12      -0.005766   0.005972  -0.010864   0.126357   0.073472   0.027668
     13       0.007124  -0.008874   0.023456  -0.227002  -0.126304  -0.054353
     14       0.009436  -0.006638   0.014236  -0.120747  -0.058011  -0.005150
     15      -0.003433  -0.038608   0.000463  -0.087565  -0.054606  -0.015987
     16       0.009906   0.077849   0.006508   0.160671   0.106451   0.034668
     17       0.003215   0.027138   0.008684   0.038926   0.047250   0.025663
     18      -0.000302  -0.002174   0.008228  -0.030970   0.004141   0.010560
     19       0.002529  -0.029915  -0.002516   0.006281  -0.018698   0.003014
     20       0.000453   0.001277   0.001175  -0.003542   0.000380   0.000183
     21       0.047310  -0.134159   0.216656   0.241937  -0.065921   0.040254
     22       0.018124  -0.158739   0.654529   0.065057   0.129811  -0.460050
     23      -0.044254   0.094968  -0.133857  -0.115974   0.080556  -0.052051
     24       0.173899  -0.143710  -0.267837  -0.058620   0.061796  -0.018992
     25       0.387872  -0.197597  -0.563533  -0.575078   0.560449  -0.283242
     26      -0.020618   0.058568   0.074504  -0.058580   0.063654  -0.031574
     27      -0.366646   0.454694  -0.153518  -0.150281   0.224458  -0.209971
     28      -0.291889   0.445683  -0.096775  -0.284195   0.233135  -0.070589
     29       0.148040  -0.160642   0.084722   0.055112  -0.056332   0.096936
     30       0.011075  -0.003540   0.093261  -0.145819   0.304181   0.174675
     31      -0.009663   0.000447  -0.103382   0.139241  -0.406165  -0.178814
     32       0.004445   0.013168  -0.067514   0.142260  -0.188134  -0.105208
     33       0.014098   0.059271  -0.014810   0.233516  -0.096583  -0.432622
     34      -0.002642  -0.067893   0.024748  -0.245269   0.034820   0.507926
     35      -0.013768  -0.050460  -0.004179  -0.128746   0.052683   0.321283
     36       0.004429   0.013015  -0.034246   0.036356  -0.139052   0.043791
     37       0.008406  -0.021522   0.054333  -0.032367   0.074114  -0.024290
     38       0.006787  -0.031741  -0.013087   0.032132   0.057365  -0.007716
     39       0.366653   0.324095   0.087557   0.015621  -0.018014   0.004232
     40      -0.590149  -0.483367  -0.137713  -0.031317   0.043983  -0.014239
     41      -0.292613  -0.270787  -0.064165  -0.038699   0.012129   0.014194
     42      -0.001204   0.001264   0.009018  -0.074947   0.014584   0.010544
     43       0.019189   0.067032  -0.028606   0.211663   0.009296  -0.039269
     44      -0.004628  -0.010970  -0.002747   0.050471  -0.001938   0.003208
                 30         31         32         33         34         35    
      0       0.011095   0.012492  -0.051183   0.010723   0.012604  -0.067636
      1      -0.064661  -0.013409   0.064662   0.068468  -0.010317   0.092456
      2       0.004451  -0.005709   0.001306  -0.082405  -0.032824  -0.002300
      3       0.011626   0.006463   0.052270   0.010928   0.008180  -0.000960
      4      -0.031249  -0.006651  -0.050789  -0.018523  -0.026531  -0.011773
      5       0.037310  -0.008579  -0.104153  -0.010706   0.043463   0.037527
      6       0.017587  -0.000874   0.015071   0.010776   0.015086   0.006358
      7      -0.017965   0.000411  -0.026158  -0.019415  -0.018387  -0.017205
      8      -0.060864   0.012519   0.036808   0.019494  -0.023401   0.023159
      9       0.000382   0.000452   0.000611   0.000994   0.000140   0.000440
     10      -0.005514   0.001497  -0.001031  -0.008210  -0.007132  -0.006447
     11       0.000679  -0.001423   0.014012   0.015013   0.008566   0.005612
     12       0.020354  -0.004067   0.019498   0.008753   0.007177   0.008995
     13      -0.039327   0.012836  -0.036478  -0.021492  -0.013941  -0.019438
     14      -0.021157  -0.003201   0.004249   0.007299  -0.003995  -0.007673
     15      -0.015827  -0.034576   0.001846  -0.013282  -0.002828  -0.002993
     16       0.027814   0.064684   0.002677   0.022652   0.007554   0.003972
     17       0.009059   0.029960   0.016662   0.025324   0.003370   0.001574
     18      -0.007778   0.000318   0.017325   0.012680  -0.001046  -0.002878
     19       0.020578  -0.000233   0.000371  -0.005509   0.009991   0.009912
     20       0.000247   0.000014   0.000724   0.000107   0.000462  -0.000047
     21      -0.144822  -0.012815   0.106652  -0.678478   0.074891   0.128273
     22       0.533180  -0.029981  -0.225370   0.167470  -0.009303   0.036501
     23       0.116587   0.010417  -0.106946   0.557414  -0.080268  -0.147208
     24       0.031381   0.009390  -0.048630   0.154755  -0.026616   0.058329
     25       0.266589  -0.028503  -0.076485  -0.201309   0.061116   0.067263
     26       0.005247  -0.016364   0.013616  -0.154584   0.015975  -0.038621
     27       0.171746  -0.006890  -0.109248  -0.106354   0.066468   0.502988
     28       0.018693  -0.032033   0.018547  -0.183368   0.006258  -0.694897
     29      -0.098189  -0.000576   0.073057   0.042767  -0.064396  -0.426223
     30      -0.215313  -0.141137  -0.530081   0.020142   0.035496   0.025505
     31       0.255167   0.171647   0.671576   0.005129  -0.039987  -0.014326
     32       0.117780   0.077022   0.266424  -0.024197  -0.030110  -0.023661
     33      -0.379938   0.003104   0.045211   0.113207  -0.016440   0.045684
     34       0.437551  -0.006472  -0.058749  -0.132168   0.017393  -0.064497
     35       0.279417  -0.002768  -0.048528  -0.078866   0.008971  -0.022137
     36       0.065413  -0.020268  -0.071451  -0.062201  -0.640056   0.055602
     37      -0.057353   0.014925   0.055519   0.055736   0.694905  -0.071037
     38      -0.022389   0.009913   0.021915   0.034842   0.267624  -0.003945
     39      -0.004577   0.003849  -0.002749  -0.012139  -0.003084  -0.012183
     40      -0.002427   0.002709   0.001975   0.010229  -0.003819   0.006598
     41       0.003957  -0.006339   0.022924   0.025660   0.006979   0.012877
     42      -0.041719   0.390695  -0.094606  -0.030315  -0.008314   0.004684
     43       0.065399  -0.820234   0.184816   0.035399   0.009674  -0.024384
     44       0.032267  -0.328379   0.097420   0.039136   0.006142  -0.005326
                 36         37         38         39         40         41    
      0      -0.030650   0.061122   0.006652  -0.010217  -0.003282  -0.004868
      1       0.117596  -0.011245   0.016349   0.015293   0.017861  -0.006532
      2      -0.211671  -0.028805  -0.039386   0.014551   0.000500  -0.030057
      3      -0.015414   0.002426   0.000330  -0.000674   0.002435  -0.005012
      4      -0.036898   0.009363   0.001955   0.014731   0.008348   0.005137
      5       0.156005  -0.029167  -0.025665  -0.024396  -0.019735   0.003373
      6       0.021863  -0.004961  -0.000007   0.007043  -0.004194   0.005091
      7      -0.078282   0.014750   0.005762   0.001029   0.010333  -0.011075
      8       0.132787  -0.013425  -0.011439  -0.058496  -0.043764   0.012936
      9       0.000594   0.000263   0.000278   0.000545   0.001427  -0.001654
     10      -0.029711   0.005567   0.000593   0.004598   0.001948   0.001435
     11       0.025490   0.000184  -0.003047  -0.007330  -0.008069  -0.009304
     12       0.033403  -0.004548  -0.005428   0.004222  -0.001143  -0.004498
     13      -0.070613   0.010249   0.006443  -0.009922  -0.005953   0.007793
     14      -0.032820   0.009637   0.004650  -0.002658   0.003759  -0.008843
     15       0.001074  -0.001437  -0.004836   0.000849  -0.006317  -0.001915
     16      -0.006076   0.003047   0.001663  -0.004172  -0.000688   0.003817
     17      -0.008688   0.008666   0.004561  -0.002057   0.007188  -0.011728
     18      -0.014177   0.008685   0.000537  -0.002046   0.000898  -0.013026
     19       0.034450  -0.012513  -0.006251   0.003702  -0.005035   0.006521
     20       0.000576  -0.000122  -0.000196  -0.000409  -0.000949   0.000108
     21       0.157312  -0.125983   0.022684  -0.005554   0.011311  -0.019381
     22       0.319437  -0.140692   0.025084   0.029784   0.026138   0.000178
     23      -0.277999   0.169859  -0.035956  -0.009364  -0.013777  -0.094985
     24      -0.281213  -0.759663   0.005873  -0.025616  -0.022949  -0.036765
     25       0.331394   0.180462   0.005224   0.032438   0.044211   0.013544
     26       0.166506   0.491990  -0.015718   0.007625  -0.040744  -0.125951
     27      -0.152553   0.014934   0.021901  -0.032320  -0.019509   0.481381
     28       0.552520  -0.273514   0.018163   0.005053   0.014446  -0.147514
     29       0.033167  -0.002655  -0.026717   0.031150   0.010099   0.846188
     30       0.054044  -0.007928   0.003840   0.016402  -0.001896  -0.004591
     31       0.005434   0.010972  -0.396681   0.010267  -0.004670   0.001599
     32      -0.081039  -0.001657   0.912129  -0.063751  -0.018625  -0.000719
     33       0.106224  -0.005522  -0.014545   0.045868   0.166223  -0.021849
     34      -0.180395   0.020721   0.002851  -0.044499  -0.445320  -0.001291
     35      -0.038907   0.001824   0.006363   0.044339   0.865987   0.013994
     36       0.139961   0.015053   0.003321   0.020197   0.011456  -0.016023
     37      -0.209133  -0.004551  -0.014886  -0.327339   0.059456  -0.007550
     38       0.013272  -0.022626   0.053413   0.933344  -0.101600   0.002322
     39      -0.029298   0.007555  -0.001765  -0.006954  -0.007322   0.002870
     40       0.004728  -0.006747   0.006802   0.013573   0.013993  -0.003672
     41       0.032351  -0.001668  -0.000377   0.004353   0.002380  -0.013500
     42       0.029540  -0.009261  -0.005657   0.002923  -0.008602   0.001704
     43      -0.085235   0.015581   0.004386  -0.025934  -0.019645   0.016462
     44      -0.035596   0.016232   0.007565  -0.001640   0.011861  -0.014755
                  42         43         44    
      0      -0.012674  -0.023000  -0.065367
      1      -0.001371   0.001088   0.031629
      2      -0.019890  -0.030988   0.044612
      3      -0.003976   0.000825  -0.004143
      4       0.000873  -0.003679   0.017320
      5      -0.002825   0.003507   0.066663
      6      -0.005874  -0.002973  -0.001060
      7       0.002915  -0.003580   0.020970
      8       0.006600   0.002650  -0.032868
      9      -0.003889  -0.002052   0.233002
     10       0.003076  -0.000499  -0.219683
     11      -0.010177  -0.010724  -0.219839
     12       0.000745  -0.005147  -0.060840
     13       0.001779   0.000841   0.053160
     14      -0.017034  -0.006808   0.023238
     15       0.008742  -0.001444  -0.204864
     16      -0.006928  -0.001914   0.041270
     17      -0.028535  -0.014300   0.262788
     18      -0.019134  -0.015226   0.142206
     19       0.009693   0.005194   0.029590
     20       0.000804  -0.000098  -0.171066
     21      -0.037533   0.645139   0.101808
     22       0.004390  -0.019871   0.051879
     23       0.004669   0.757337  -0.007055
     24       0.497395   0.024053   0.088784
     25      -0.165621   0.010424   0.157098
     26       0.837528  -0.029602   0.216929
     27       0.070944   0.055192  -0.094999
     28      -0.011124   0.016770   0.024168
     29       0.077240   0.039112   0.175244
     30      -0.008711  -0.007618  -0.058571
     31       0.017090   0.008071  -0.088896
     32       0.014567   0.002040  -0.044359
     33      -0.010405  -0.009122   0.004867
     34      -0.018065  -0.000309  -0.053258
     35       0.065625   0.011250  -0.138362
     36      -0.014079  -0.000435   0.012706
     37       0.002368  -0.005864   0.016375
     38       0.014000   0.016372  -0.027580
     39       0.005789   0.000897  -0.297931
     40      -0.000705  -0.007822  -0.043029
     41      -0.021146  -0.014476   0.248319
     42       0.024120   0.002099  -0.413074
     43       0.009410   0.002941  -0.147579
     44      -0.042186  -0.017008   0.388828


-----------
IR SPECTRUM
-----------

 Mode    freq (cm**-1)   T**2         TX         TY         TZ
-------------------------------------------------------------------
  30:       478.88   95.206603  ( -1.617183   8.737580   4.030635)
  31:       946.84   19.628000  (  1.760586  -3.482532   2.097692)
  32:      1366.36   31.881967  ( -3.346893  -3.220683   3.210525)
  33:      1818.74   60.328008  ( -4.047878  -5.421598   3.814310)
  34:      2433.04   10.782594  ( -0.529476  -0.196692  -3.234743)
  35:      2824.82  170.911941  (  7.478190  -9.941889  -4.018390)
  36:      3021.47   25.139400  ( -0.525380   2.919338   4.042381)
  37:      3285.40   99.463544  ( -7.097063  -3.168211   6.249615)
  38:      5107.42   24.931026  (  4.874584   0.026511  -1.081087)
  39:      5377.79   19.020993  ( -0.446539   2.955206   3.176217)
  40:      5911.79   23.545778  (  1.250247   4.411141   1.588866)
  41:      6512.82   14.042150  (  3.049833  -0.766175   2.038050)
  42:      6721.10  102.076682  (  4.827398  -0.187997   8.873419)
  43:      7142.63    6.843375  (  1.587919   1.035524   1.802659)
  44:     18343.69  375.393466  (-16.913802  -7.609242  -5.605016)

The first frequency considered to be a vibration is 30
The total number of vibrations considered is 15


--------------------------
THERMOCHEMISTRY AT 298.15K
--------------------------

Temperature         ... 298.15 K
Pressure            ... 1.00 atm
Total Mass          ... 102.11 AMU

Throughout the following assumptions are being made:
  (1) The electronic state is orbitally nondegenerate
  (2) There are no thermally accessible electronically excited states
  (3) Hindered rotations indicated by low frequency modes) are not
      treated as such but are treated as vibrations and this may
      case some error
  (4) All equations used are the standard statistical mechanics
      equations for an ideal gas
  (5) All vibrations are strinctly harmonic


------------
INNER ENERGY
------------

The inner energy is: U= E(el) + E(ZPE) + E(vib) + E(rot) + E(trans)
    E(el)   - is the total energy from the electronic structure calculation
              = E(kin-el) + E(nuc-el) + E(el-el) + E(nuc-nuc)
    E(ZPE)  - the the zero temperature vibrational energy from the frequency calculation
    E(vib)  - the the finite temperature correction to E(ZPE) due to population
              of excietd vibrational states
    E(rot)  - is the rotational thermal energy
    E(trans)- is the translational thermal energy

Summary of contributions to the inner energy U:
Electronic energy                ...   -361.88622084 Eh
Zero point energy                ...      0.16241694 Eh     101.92 kcal/mol
Thermal vibrational correction   ...      0.00029534 Eh       0.19 kcal/mol
Thermal rotational correction    ...      0.00141627 Eh       0.89 kcal/mol
Thermal translational correction ...      0.00141627 Eh       0.89 kcal/mol
-----------------------------------------------------------------------
Total thermal energy                   -361.72067601 Eh


Summary of corrections to the electronic energy:
(perhaps to be used in another calculation)
Total thermal correction                  0.00312789 Eh       1.96 kcal/mol
Non-thermal (ZPE) correction              0.16241694 Eh     101.92 kcal/mol
-----------------------------------------------------------------------
Total correction                          0.16554483 Eh     103.88 kcal/mol


--------
ENTHALPY
--------

The enthalpy is H = U + kB*T
                kB is Boltzmann's constant
Total free energy                 ...   -361.72067601 Eh 
Thermal Enthalpy correction       ...      0.00094421 Eh       0.59 kcal/mol
-----------------------------------------------------------------------
Total Enthalpy                    ...   -361.71973180 Eh


-------
ENTROPY
-------

The entropy contributions are T*S = T*(S(el)+S(vib)+S(rot)+S(trans)
     S(el)   - electronic entropy
     S(vib)  - vibrational entropy
     S(rot)  - rotational entropy
     S(trans)- translational entropy
The entropies will be listed as mutliplied by the temperature to get
units of energy

Electronic entropy                ...      0.00000000 Eh      0.00 kcal/mol
Vibrational entropy               ...      0.00040524 Eh      0.25 kcal/mol
Rotational entropy                ...      0.01211563 Eh      7.60 kcal/mol
Translational entropy             ...      0.01890086 Eh     11.86 kcal/mol
-----------------------------------------------------------------------
Final entropy term                ...      0.03142172 Eh     19.72 kcal/mol


CAUTION: The rotational entropy is not quite correctly treated here
         because it includes a symmetry number that is not yet correctly
         implemented in ORCA!
For a nonlinear molecule the correct rotational entropy is:
    S(rot) = R*(ln(qrot/sn)+1.5)
    R    = 8.31441 J/mol/K = 1.987191683e-3 kcal/mol/K
    qrot = 250321.7896016
    sn is the rotational symmetry number. We have assumed 3 here
       if it is different for your molecule then you should correct
       the printed rotational entropy by manually evaluating the equation
       as given above

For convenience we print out the resulting values for sn=1 - 12:
 sn= 1  qrot/sn=  250321.7896 T*S(rot)=     8.25 kcal/mol T*S(tot)=    20.37 kcal/mol
 sn= 2  qrot/sn=  125160.8948 T*S(rot)=     7.84 kcal/mol T*S(tot)=    19.96 kcal/mol
 sn= 3  qrot/sn=   83440.5965 T*S(rot)=     7.60 kcal/mol T*S(tot)=    19.72 kcal/mol
 sn= 4  qrot/sn=   62580.4474 T*S(rot)=     7.43 kcal/mol T*S(tot)=    19.55 kcal/mol
 sn= 5  qrot/sn=   50064.3579 T*S(rot)=     7.30 kcal/mol T*S(tot)=    19.41 kcal/mol
 sn= 6  qrot/sn=   41720.2983 T*S(rot)=     7.19 kcal/mol T*S(tot)=    19.31 kcal/mol
 sn= 7  qrot/sn=   35760.2557 T*S(rot)=     7.10 kcal/mol T*S(tot)=    19.22 kcal/mol
 sn= 8  qrot/sn=   31290.2237 T*S(rot)=     7.02 kcal/mol T*S(tot)=    19.14 kcal/mol
 sn= 9  qrot/sn=   27813.5322 T*S(rot)=     6.95 kcal/mol T*S(tot)=    19.07 kcal/mol
 sn=10  qrot/sn=   25032.1790 T*S(rot)=     6.89 kcal/mol T*S(tot)=    19.00 kcal/mol
 sn=11  qrot/sn=   22756.5263 T*S(rot)=     6.83 kcal/mol T*S(tot)=    18.95 kcal/mol
 sn=12  qrot/sn=   20860.1491 T*S(rot)=     6.78 kcal/mol T*S(tot)=    18.90 kcal/mol


-------------------
GIBBS FREE ENTHALPY
-------------------

The Gibbs free enthalpy is G = H - T*S

Total enthalpy                    ...   -361.71973180 Eh 
Total entropy correction          ...     -0.03142172 Eh    -19.72 kcal/mol
-----------------------------------------------------------------------
Final Gibbs free enthalpy         ...   -361.75115352 Eh

For completeness - the Gibbs free enthalpy minus the electronic energy
G-E(el)                           ...      0.13506732 Eh     84.76 kcal/mol


Timings for individual modules:

Sum of individual times         ...     2513.920 sec (=  41.899 min)
GTO integral calculation        ...       19.807 sec (=   0.330 min)   0.8 %
SCF iterations                  ...      488.075 sec (=   8.135 min)  19.4 %
SCF Gradient evaluation         ...      276.788 sec (=   4.613 min)  11.0 %
Geometry relaxation             ...        0.759 sec (=   0.013 min)   0.0 %
Analytical frequency calculation...     1728.491 sec (=  28.808 min)  68.8 %
                             ****ORCA TERMINATED NORMALLY****
TOTAL RUN TIME: 0 days 0 hours 41 minutes 55 seconds 987 msec
