
                                 *****************
                                 * O   R   C   A *
                                 *****************

           --- An Ab Initio, DFT and Semiempirical electronic structure package ---

                  #######################################################
                  #                        -***-                        #
                  #  Department of molecular theory and spectroscopy    #
                  #              Directorship: Frank Neese              #
                  # Max Planck Institute for Chemical Energy Conversion #
                  #                  D-45470 Muelheim/Ruhr              #
                  #                       Germany                       #
                  #                                                     #
                  #                  All rights reserved                #
                  #                        -***-                        #
                  #######################################################


                         Program Version 3.0.3 - RELEASE   -


 With contributions from (in alphabetic order):
   Ute Becker             : Parallelization
   Dmytro Bykov           : SCF Hessian
   Dmitry Ganyushin       : Spin-Orbit,Spin-Spin,Magnetic field MRCI
   Andreas Hansen         : Spin unrestricted coupled pair/coupled cluster methods
   Dimitrios Liakos       : Extrapolation schemes; parallel MDCI
   Robert Izsak           : Overlap fitted RIJCOSX, COSX-SCS-MP3
   Christian Kollmar      : KDIIS, OOCD, Brueckner-CCSD(T), CCSD density
   Simone Kossmann        : Meta GGA functionals, TD-DFT gradient, OOMP2, MP2 Hessian
   Taras Petrenko         : DFT Hessian,TD-DFT gradient, ASA and ECA modules, normal mode analysis, Resonance Raman, ABS, FL, XAS/XES, NRVS
   Christoph Reimann      : Effective Core Potentials
   Michael Roemelt        : Restricted open shell CIS
   Christoph Riplinger    : Improved optimizer, TS searches, QM/MM, DLPNO-CCSD
   Barbara Sandhoefer     : DKH picture change effects
   Igor Schapiro          : Molecular dynamics
   Kantharuban Sivalingam : CASSCF convergence, NEVPT2
   Boris Wezisla          : Elementary symmetry handling
   Frank Wennmohs         : Technical directorship


 We gratefully acknowledge several colleagues who have allowed us to
 interface, adapt or use parts of their codes:
   Stefan Grimme, W. Hujo, H. Kruse, T. Risthaus : VdW corrections, initial TS optimization,
                                                   DFT functionals, gCP
   Ed Valeev                                     : LibInt (2-el integral package), F12 methods
   Garnet Chan, S. Sharma, R. Olivares           : DMRG
   Ulf Ekstrom                                   : XCFun DFT Library
   Mihaly Kallay                                 : mrcc  (arbitrary order and MRCC methods)
   Andreas Klamt, Michael Diedenhofen            : otool_cosmo (COSMO solvation model)
   Frank Weinhold                                : gennbo (NPA and NBO analysis)
   Christopher J. Cramer and Donald G. Truhlar   : smd solvation model


 Your calculation uses the libint2 library for the computation of 2-el integrals
 For citations please refer to: http://libint.valeyev.net

 This ORCA versions uses:
   CBLAS   interface :  Fast vector & matrix operations
   LAPACKE interface :  Fast linear algebra routines
   SCALAPACK package :  Parallel linear algebra routines


Your calculation utilizes the basis: Ahlrichs-TZV
Cite in your paper:
H - Kr: A. Schaefer, H. Horn and R. Ahlrichs, J. Chem. Phys. 97, 2571 (1992).

The def2-TZV basis will be loaded
Cite in your paper:
 	F. Weigend, R. Ahlrichs, Phys. Chem. Chem. Phys. 2005, 7, 3297.

================================================================================
                                        WARNINGS
                       Please study these warnings very carefully!
================================================================================
Now building the actual basis set
WARNING: Geometry optimizations can change the point-group symmetry!

WARNING: Geometry Optimization
  ===> : Switching off AutoStart
         For restart on a previous wavefunction, please use MOREAD


INFO   : the flag for use of LIBINT has been found!

================================================================================
                                       INPUT FILE
================================================================================
NAME = 6545_+.inp
|  1> ! NORI PBE0 def2-TZVP UseSym TightOPT Freq TightSCF Grid3 FinalGrid5 XYZFile
|  2> % pal
|  3>     nprocs 8
|  4> end
|  5> %method
|  6>     SymThresh 5.0e-2
|  7> end
|  8> % geom 
|  9>     MaxIter 10
| 10> end 
| 11> % maxcore 2000
| 12> % output
| 13>     printlevel mini
| 14>     print[ P_Basis ] 0
| 15>     print[ P_SCFInfo ] 1
| 16>     print[ P_SCFIterInfo ] 1
| 17>     print[ P_OrbEn ] 0
| 18>     print[ P_Cartesian ] 0
| 19> end
| 20> % elprop
| 21>     Dipole false
| 22> end
| 23> *xyz 1 1
| 24>  O        1.0978137961     0.4320906904     0.2104612599 
| 25>  C        2.4471999014     0.1725552400     0.0540683305 
| 26>  C        3.2402808763     0.9685915334     1.1217709642 
| 27>  N        3.8478257235    -0.3114273749     1.6606701145 
| 28>  C        2.9301169774    -1.1268890623     0.7716098508 
| 29>  C        2.9600241065     0.3230948011    -1.3441629726 
| 30>  C        2.2981243371     0.9239300703    -2.3206580309 
| 31>  H        0.6120019847     0.1083930355    -0.5566530513 
| 32>  H        2.5856019636     1.4152969037     1.8674793200 
| 33>  H        3.9947097238     1.6746129021     0.7833665399 
| 34>  H        4.8350243594    -0.4189051386     1.4340929627 
| 35>  H        3.7393111356    -0.4617475940     2.6625015244 
| 36>  H        3.4740120045    -1.8736384890     0.1969604839 
| 37>  H        2.1456305170    -1.5830305766     1.3714397134 
| 38>  H        3.9485610574    -0.0879018310    -1.5381134058 
| 39>  H        1.3208555821     1.3717465947    -2.1745229345 
| 40>  H        2.7232559537     1.0021782951    -3.3134106692 
| 41> *
| 42> 
| 43>                          ****END OF INPUT****
================================================================================

The point group is C1 - hence turning off symmetry
If this is a round-off problem, please increase the symmetry
        detection tolerance (%method SymThresh)


                       *****************************
                       * Geometry Optimization Run *
                       *****************************

Geometry optimization settings:
Update method            Update   .... BFGS
Choice of coordinates    CoordSys .... Redundant Internals
Initial Hessian          InHess   .... Almoef's Model

Convergence Tolerances:
Energy Change            TolE     ....  1.0000e-06 Eh
Max. Gradient            TolMAXG  ....  1.0000e-04 Eh/bohr
RMS Gradient             TolRMSG  ....  3.0000e-05 Eh/bohr
Max. Displacement        TolMAXD  ....  1.0000e-03 bohr
RMS Displacement         TolRMSD  ....  6.0000e-04 bohr

------------------------------------------------------------------------------
                        ORCA OPTIMIZATION COORDINATE SETUP
------------------------------------------------------------------------------

The optimization will be done in new redundant internal coordinates
Making redundant internal coordinates   ...  (new redundants) done
Evaluating the initial hessian          ...  (Almloef) done
Evaluating the coordinates              ...  done
Calculating the B-matrix                .... done
Calculating the G-matrix                .... done
Diagonalizing the G-matrix              .... done
The first mode is                       ....   52
The number of degrees of freedom        ....   45

    -----------------------------------------------------------------
                    Redundant Internal Coordinates


    -----------------------------------------------------------------
         Definition                    Initial Value    Approx d2E/dq
    -----------------------------------------------------------------
      1. B(C   1,O   0)                  1.3830         0.574196   
      2. B(C   2,C   1)                  1.5500         0.347054   
      3. B(N   3,C   2)                  1.5159         0.352371   
      4. B(C   4,C   1)                  1.5610         0.333400   
      5. B(C   4,N   3)                  1.5158         0.352532   
      6. B(C   5,C   1)                  1.4969         0.421882   
      7. B(C   6,C   5)                  1.3239         0.796580   
      8. B(H   7,O   0)                  0.9640         0.512409   
      9. B(H   8,C   2)                  1.0882         0.362457   
     10. B(H   9,C   2)                  1.0873         0.363735   
     11. B(H  10,N   3)                  1.0186         0.419324   
     12. B(H  11,N   3)                  1.0188         0.418879   
     13. B(H  12,C   4)                  1.0880         0.362796   
     14. B(H  13,C   4)                  1.0878         0.363040   
     15. B(H  14,C   5)                  1.0880         0.362758   
     16. B(H  15,C   6)                  1.0849         0.366947   
     17. B(H  16,C   6)                  1.0828         0.369776   
     18. A(C   1,O   0,H   7)          109.7986         0.364362   
     19. A(C   2,C   1,C   4)           87.2827         0.351957   
     20. A(O   0,C   1,C   2)          108.9625         0.383940   
     21. A(O   0,C   1,C   4)          113.9596         0.381273   
     22. A(C   2,C   1,C   5)          114.6128         0.366346   
     23. A(C   4,C   1,C   5)          114.0233         0.363838   
     24. A(O   0,C   1,C   5)          114.8992         0.397266   
     25. A(C   1,C   2,H   9)          118.3016         0.320956   
     26. A(N   3,C   2,H   8)          110.1281         0.319657   
     27. A(N   3,C   2,H   9)          112.3872         0.319840   
     28. A(C   1,C   2,N   3)           90.9333         0.353081   
     29. A(C   1,C   2,H   8)          112.0253         0.320771   
     30. A(H   8,C   2,H   9)          111.3562         0.291598   
     31. A(H  10,N   3,H  11)          107.8422         0.300181   
     32. A(C   4,N   3,H  11)          115.6508         0.324582   
     33. A(C   2,N   3,C   4)           90.1781         0.351838   
     34. A(C   2,N   3,H  11)          115.5601         0.324557   
     35. A(C   4,N   3,H  10)          113.5504         0.324638   
     36. A(C   2,N   3,H  10)          113.4821         0.324614   
     37. A(C   1,C   4,N   3)           90.5199         0.350719   
     38. A(N   3,C   4,H  13)          109.8031         0.319764   
     39. A(C   1,C   4,H  13)          112.2990         0.318759   
     40. A(N   3,C   4,H  12)          112.1099         0.319729   
     41. A(C   1,C   4,H  12)          118.8972         0.318724   
     42. A(H  12,C   4,H  13)          111.3440         0.291553   
     43. A(C   6,C   5,H  14)          119.6182         0.368776   
     44. A(C   1,C   5,H  14)          116.0909         0.331289   
     45. A(C   1,C   5,C   6)          124.2871         0.423728   
     46. A(H  15,C   6,H  16)          116.5743         0.292922   
     47. A(C   5,C   6,H  16)          120.8483         0.369992   
     48. A(C   5,C   6,H  15)          122.5722         0.369504   
     49. D(C   2,C   1,O   0,H   7)    167.3961         0.026410   
     50. D(C   5,C   1,O   0,H   7)     37.2307         0.026410   
     51. D(C   4,C   1,O   0,H   7)    -96.9895         0.026410   
     52. D(H   8,C   2,C   1,O   0)     10.0078         0.009718   
     53. D(H   9,C   2,C   1,C   4)    123.9724         0.009718   
     54. D(N   3,C   2,C   1,C   5)   -107.4700         0.009718   
     55. D(H   9,C   2,C   1,C   5)      8.7233         0.009718   
     56. D(H   9,C   2,C   1,O   0)   -121.5982         0.009718   
     57. D(N   3,C   2,C   1,O   0)    122.2084         0.009718   
     58. D(H   8,C   2,C   1,C   4)   -104.4216         0.009718   
     59. D(H   8,C   2,C   1,C   5)    140.3293         0.009718   
     60. D(N   3,C   2,C   1,C   4)      7.7791         0.009718   
     61. D(C   4,N   3,C   2,C   1)     -8.0035         0.011438   
     62. D(C   4,N   3,C   2,H   8)    105.9148         0.011438   
     63. D(H  11,N   3,C   2,H   9)    111.9227         0.011438   
     64. D(H  11,N   3,C   2,H   8)    -12.8579         0.011438   
     65. D(H  10,N   3,C   2,H   9)    -13.3929         0.011438   
     66. D(H  10,N   3,C   2,H   8)   -138.1735         0.011438   
     67. D(H  10,N   3,C   2,C   1)    107.9082         0.011438   
     68. D(H  11,N   3,C   2,C   1)   -126.7762         0.011438   
     69. D(C   4,N   3,C   2,H   9)   -129.3047         0.011438   
     70. D(H  13,C   4,C   1,C   5)   -140.2621         0.009033   
     71. D(H  13,C   4,C   1,C   2)    103.9310         0.009033   
     72. D(H  13,C   4,C   1,O   0)     -5.6354         0.009033   
     73. D(H  12,C   4,C   1,C   5)     -7.7537         0.009033   
     74. D(H  12,C   4,C   1,C   2)   -123.5605         0.009033   
     75. D(H  12,C   4,C   1,O   0)    126.8731         0.009033   
     76. D(N   3,C   4,C   1,C   5)    108.0279         0.009033   
     77. D(N   3,C   4,C   1,C   2)     -7.7790         0.009033   
     78. D(C   1,C   4,N   3,C   2)      7.9464         0.011448   
     79. D(N   3,C   4,C   1,O   0)   -117.3454         0.009033   
     80. D(H  13,C   4,N   3,H  10)    138.1061         0.011448   
     81. D(H  13,C   4,N   3,C   2)   -106.0434         0.011448   
     82. D(H  12,C   4,N   3,H  11)   -111.6716         0.011448   
     83. D(H  12,C   4,N   3,H  10)     13.7846         0.011448   
     84. D(H  12,C   4,N   3,C   2)    129.6351         0.011448   
     85. D(C   1,C   4,N   3,H  11)    126.6397         0.011448   
     86. D(H  13,C   4,N   3,H  11)     12.6499         0.011448   
     87. D(C   1,C   4,N   3,H  10)   -107.9041         0.011448   
     88. D(H  14,C   5,C   1,C   4)    -32.3936         0.013158   
     89. D(H  14,C   5,C   1,C   2)     66.0649         0.013158   
     90. D(H  14,C   5,C   1,O   0)   -166.5846         0.013158   
     91. D(C   6,C   5,C   1,C   4)    148.3186         0.013158   
     92. D(C   6,C   5,C   1,C   2)   -113.2229         0.013158   
     93. D(C   6,C   5,C   1,O   0)     14.1276         0.013158   
     94. D(H  16,C   6,C   5,H  14)      0.6810         0.045811   
     95. D(H  16,C   6,C   5,C   1)    179.9453         0.045811   
     96. D(H  15,C   6,C   5,H  14)   -178.4627         0.045811   
     97. D(H  15,C   6,C   5,C   1)      0.8016         0.045811   
    -----------------------------------------------------------------

Number of atoms                         .... 17
Number of degrees of freedom            .... 97

         *************************************************************
         *                GEOMETRY OPTIMIZATION CYCLE   1            *
         *************************************************************


           ************************************************************
           *        Program running with 8 parallel MPI-processes     *
           *              working on a common directory               *
           ************************************************************
           ************************************************************
           *              Shut down parallel processing               *
           ************************************************************


           ************************************************************
           *        Program running with 8 parallel MPI-processes     *
           *              working on a common directory               *
           ************************************************************
------------
SCF SETTINGS
------------
Hamiltonian:
 Density Functional     Method          .... DFT(GTOs)
 Exchange Functional    Exchange        .... PBE
   PBE kappa parameter  XKappa          ....  0.804000
 Correlation Functional Correlation     .... PBE
 LDA part of GGA corr.  LDAOpt          .... PW91-LDA
 Gradients option       PostSCFGGA      .... off
 Hybrid DFT is turned on
   Fraction HF Exchange ScalHFX         ....  0.250000
   Scaling of DF-GGA-X  ScalDFX         ....  0.750000
   Scaling of DF-GGA-C  ScalDFC         ....  1.000000
   Scaling of DF-LDA-C  ScalLDAC        ....  1.000000
   Perturbative correction              ....  0.000000
   NL short-range parameter             ....  6.900000


General Settings:
 Integral files         IntName         .... 6545_+
 Hartree-Fock type      HFTyp           .... RHF
 Total Charge           Charge          ....    1
 Multiplicity           Mult            ....    1
 Number of Electrons    NEL             ....   54
 Basis Dimension        Dim             ....  277
 Nuclear Repulsion      ENuc            ....    322.8261876406 Eh

Convergence Acceleration:
 DIIS                   CNVDIIS         .... on
   Start iteration      DIISMaxIt       ....    12
   Startup error        DIISStart       ....  0.200000
   # of expansion vecs  DIISMaxEq       ....     5
   Bias factor          DIISBfac        ....   1.050
   Max. coefficient     DIISMaxC        ....  10.000
 Newton-Raphson         CNVNR           .... off
 SOSCF                  CNVSOSCF        .... on
   Start iteration      SOSCFMaxIt      ....   150
   Startup grad/error   SOSCFStart      ....  0.003300
 Level Shifting         CNVShift        .... on
   Level shift para.    LevelShift      ....    0.2500
   Turn off err/grad.   ShiftErr        ....    0.0010
 Zerner damping         CNVZerner       .... off
 Static damping         CNVDamp         .... on
   Fraction old density DampFac         ....    0.7000
   Max. Damping (<1)    DampMax         ....    0.9800
   Min. Damping (>=0)   DampMin         ....    0.0000
   Turn off err/grad.   DampErr         ....    0.1000
 Fernandez-Rico         CNVRico         .... off

SCF Procedure:
 Maximum # iterations   MaxIter         ....   125
 SCF integral mode      SCFMode         .... Direct
   Integral package                     .... LIBINT
 Reset frequeny         DirectResetFreq ....    20
 Integral Threshold     Thresh          ....  2.500e-11 Eh
 Primitive CutOff       TCut            ....  2.500e-12 Eh

Convergence Tolerance:
 Convergence Check Mode ConvCheckMode   .... Total+1el-Energy
 Energy Change          TolE            ....  1.000e-08 Eh
 1-El. energy change                    ....  1.000e-05 Eh
 Orbital Gradient       TolG            ....  1.000e-05
 Orbital Rotation angle TolX            ....  1.000e-05
 DIIS Error             TolErr          ....  5.000e-07


Diagonalization of the overlap matrix:
Smallest eigenvalue                        ... 8.264e-05
Time for diagonalization                   ...    0.041 sec
Threshold for overlap eigenvalues          ... 1.000e-08
Number of eigenvalues below threshold      ... 0
Time for construction of square roots      ...    0.012 sec
Total time needed                          ...    0.053 sec

-------------------
DFT GRID GENERATION
-------------------

General Integration Accuracy     IntAcc      ...  4.340
Radial Grid Type                 RadialGrid  ... Gauss-Chebyshev
Angular Grid (max. acc.)         AngularGrid ... Lebedev-194
Angular grid pruning method      GridPruning ... 3 (G Style)
Weight generation scheme         WeightScheme... Becke
Basis function cutoff            BFCut       ...    1.0000e-11
Integration weight cutoff        WCut        ...    1.0000e-14
Grids for H and He will be reduced by one unit

# of grid points (after initial pruning)     ...  38362 (   0.0 sec)
# of grid points (after weights+screening)   ...  35177 (   0.1 sec)
nearest neighbour list constructed           ...    0.0 sec
Grid point re-assignment to atoms done       ...    0.0 sec
Grid point division into batches done        ...    0.1 sec
Reduced shell lists constructed in    0.2 sec

Total number of grid points                  ...    35177
Total number of batches                      ...      557
Average number of points per batch           ...       63
Average number of grid points per atom       ...     2069
Average number of shells per batch           ...    95.00 (81.20%)
Average number of basis functions per batch  ...   238.41 (86.07%)
Average number of large shells per batch     ...    78.70 (82.85%)
Average number of large basis fcns per batch ...   197.80 (82.97%)
Maximum spatial batch extension              ...  13.77, 14.66, 12.43 au
Average spatial batch extension              ...   0.21,  0.21,  0.21 au

Time for grid setup =    0.432 sec

Loading Hartree-Fock densities                     ... done
Calculating cut-offs                               ... done
Setting up the integral package                    ... done
Initializing the effective Hamiltonian             ... done
Starting the Coulomb interaction                   ... done (   0.0 sec)
Reading the grid                                   ... done
Mapping shells                                     ... done
Starting the XC term evaluation                    ... done (   0.4 sec)
  promolecular density results
     # of electrons  =     54.992689877
     EX              =    -43.255475198
     EC              =     -1.823182175
     EX+EC           =    -45.078657373
Transforming the Hamiltonian                       ... done (   0.0 sec)
Diagonalizing the Hamiltonian                      ... done (   0.3 sec)
Back transforming the eigenvectors                 ... done (   0.0 sec)
Now organizing SCF variables                       ... done
--------------
SCF ITERATIONS
--------------
ITER       Energy         Delta-E        Max-DP      RMS-DP      [F,P]     Damp
               ***  Starting incremental Fock matrix formation  ***
  0   -325.8129670434   0.000000000000 0.04050476  0.00094366  0.2356956 0.7000
  1   -325.8837419831  -0.070774939667 0.03855833  0.00074560  0.1005904 0.7000
                               ***Turning on DIIS***
  2   -325.9140401297  -0.030298146586 0.05953713  0.00134965  0.0337851 0.0000
  3   -325.9607888076  -0.046748677860 0.03225226  0.00053677  0.0547646 0.0000
  4   -325.9706909523  -0.009902144780 0.00853673  0.00015782  0.0085985 0.0000
  5   -325.9710613663  -0.000370414012 0.00413583  0.00006612  0.0063340 0.0000
                      *** Initiating the SOSCF procedure ***
                           *** Shutting down DIIS ***
                      *** Re-Reading the Fockian *** 
                      *** Removing any level shift *** 
ITER      Energy       Delta-E        Grad      Rot      Max-DP    RMS-DP
  6   -325.97111688  -0.0000555104  0.000186  0.000186  0.002212  0.000038
               *** Restarting incremental Fock matrix formation ***
  7   -325.97111857  -0.0000016949  0.000039  0.000130  0.000123  0.000004
  8   -325.97111852   0.0000000467  0.000062  0.000094  0.000088  0.000002
  9   -325.97111871  -0.0000001803  0.000010  0.000028  0.000024  0.000001
 10   -325.97111870   0.0000000018  0.000016  0.000021  0.000014  0.000000
                 **** Energy Check signals convergence ****
              ***Rediagonalizing the Fockian in SOSCF/NRSCF***

               *****************************************************
               *                     SUCCESS                       *
               *           SCF CONVERGED AFTER  11 CYCLES          *
               *****************************************************

Setting up the final grid:

General Integration Accuracy     IntAcc      ...  5.010
Radial Grid Type                 RadialGrid  ... Gauss-Chebyshev
Angular Grid (max. acc.)         AngularGrid ... Lebedev-434
Angular grid pruning method      GridPruning ... 3 (G Style)
Weight generation scheme         WeightScheme... Becke
Basis function cutoff            BFCut       ...    1.0000e-11
Integration weight cutoff        WCut        ...    1.0000e-14
Grids for H and He will be reduced by one unit

# of grid points (after initial pruning)     ... 141842 (   0.0 sec)
# of grid points (after weights+screening)   ... 128546 (   0.6 sec)
nearest neighbour list constructed           ...    0.0 sec
Grid point re-assignment to atoms done       ...    0.0 sec
Grid point division into batches done        ...    1.1 sec
Reduced shell lists constructed in    1.4 sec

Total number of grid points                  ...   128546
Total number of batches                      ...     2018
Average number of points per batch           ...       63
Average number of grid points per atom       ...     7562
Average number of shells per batch           ...    92.76 (79.28%)
Average number of basis functions per batch  ...   232.92 (84.09%)
Average number of large shells per batch     ...    75.85 (81.77%)
Average number of large basis fcns per batch ...   190.43 (81.76%)
Maximum spatial batch extension              ...  10.44, 11.92, 10.94 au
Average spatial batch extension              ...   0.14,  0.14,  0.14 au

Final grid set up in    2.6 sec
Final integration                            ... done (   1.0 sec)
Change in XC energy                          ...     0.000298387
Integrated number of electrons               ...    53.999997495
Previous integrated no of electrons          ...    53.999068394
Total Energy       :         -325.97082032 Eh           -8870.11697 eV
  Last Energy change         ...   -4.6576e-09  Tolerance :   1.0000e-08
  Last MAX-Density change    ...    4.6991e-06  Tolerance :   1.0000e-07
             **** THE GBW FILE WAS UPDATED (6545_+.gbw) ****
             **** DENSITY FILE WAS UPDATED (6545_+.scfp.tmp) ****
             **** ENERGY FILE WAS UPDATED (6545_+.en.tmp) ****
Total SCF time: 0 days 0 hours 1 min 23 sec 
           ************************************************************
           *              Shut down parallel processing               *
           ************************************************************

-------------------------   --------------------
FINAL SINGLE POINT ENERGY      -325.970820321464
-------------------------   --------------------



           ************************************************************
           *        Program running with 8 parallel MPI-processes     *
           *              working on a common directory               *
           ************************************************************
------------------------------------------------------------------------------
                         ORCA SCF GRADIENT CALCULATION
------------------------------------------------------------------------------

Gradient of the Kohn-Sham DFT energy:
Kohn-Sham wavefunction type      ... RKS
Hartree-Fock exchange scaling    ...    0.250
Number of operators              ...    1
Number of atoms                  ...   17
Basis set dimensions             ...  277
Integral neglect threshold       ... 2.5e-11
Integral primitive cutoff        ... 2.5e-12

Nuclear repulsion gradient       ... done
One Electron Gradient            ... done
Pre-screening matrix             ... done
Starting the two electron gradient:
Two electron gradient done
Exchange-correlation gradient    ... done

------------------
CARTESIAN GRADIENT
------------------

   1   O   :   -0.000045507    0.000048107    0.000098910
   2   C   :   -0.000047741   -0.000075797   -0.000134735
   3   C   :   -0.000024887   -0.000161819    0.000078499
   4   N   :   -0.000293709   -0.000085470    0.000121462
   5   C   :    0.000000986    0.000048732    0.000034352
   6   C   :    0.000008106   -0.000014815    0.000026331
   7   C   :    0.000249903   -0.000016890   -0.000075055
   8   H   :    0.000012760   -0.000034247   -0.000057465
   9   H   :    0.000038376    0.000075118    0.000041736
  10   H   :   -0.000024201    0.000112678   -0.000068063
  11   H   :    0.000004500    0.000015922   -0.000191734
  12   H   :    0.000180306   -0.000016720    0.000003358
  13   H   :    0.000001838   -0.000008998    0.000011952
  14   H   :    0.000041814    0.000045184    0.000039940
  15   H   :   -0.000015552    0.000091004    0.000101598
  16   H   :   -0.000038662   -0.000039255   -0.000035461
  17   H   :   -0.000048331    0.000017265    0.000004376

Norm of the cartesian gradient     ...    0.000622248
RMS gradient                       ...    0.000087132
MAX gradient                       ...    0.000293709

-------
TIMINGS
-------

Total SCF gradient time            ...       36.894 sec

One electron gradient       ....       0.176 sec  (  0.5%)
Prescreening matrices       ....       0.505 sec  (  1.4%)
Two electron gradient       ....      29.061 sec  ( 78.8%)
XC gradient                 ....       3.049 sec  (  8.3%)
           ************************************************************
           *              Shut down parallel processing               *
           ************************************************************
------------------------------------------------------------------------------
                         ORCA GEOMETRY RELAXATION STEP
------------------------------------------------------------------------------

Reading the OPT-File                    .... done
Getting information on internals        .... done
Copying old internal coords+grads       .... done
Making the new internal coordinates     .... (new redundants).... done
Validating the new internal coordinates .... (new redundants).... done
Calculating the B-matrix                .... done
Calculating the G,G- and P matrices     .... done
Transforming gradient to internals      .... done
Projecting the internal gradient        .... done
Number of atoms                         ....  17
Number of internal coordinates          ....  97
Current Energy                          ....  -325.970820321 Eh
Current gradient norm                   ....     0.000622248 Eh/bohr
Maximum allowed component of the step   ....  0.300
Current trust radius                    ....  0.300
Evaluating the initial hessian          ....  (Almloef) done
Projecting the Hessian                  .... done
Forming the augmented Hessian           .... done
Diagonalizing the augmented Hessian     .... done
Last element of RFO vector              ....  0.999956704
Lowest eigenvalues of augmented Hessian:
 -0.000001750  0.010623333  0.013157905  0.026410154  0.026737298
Length of the computed step             ....  0.009305742
The final length of the internal step   ....  0.009305742
Converting the step to cartesian space:
 Initial RMS(Int)=    0.0009448550
Transforming coordinates:
 Iter   0:  RMS(Cart)=    0.0017809375 RMS(Int)=    0.0009448879
 Iter   1:  RMS(Cart)=    0.0000015949 RMS(Int)=    0.0000009841
 Iter   2:  RMS(Cart)=    0.0000000030 RMS(Int)=    0.0000000015
done
Storing new coordinates                 .... done

                                .--------------------.
          ----------------------|Geometry convergence|---------------------
          Item                value                 Tolerance   Converged
          -----------------------------------------------------------------
          RMS gradient        0.00005006            0.00003000      NO
          MAX gradient        0.00019595            0.00010000      NO
          RMS step            0.00094485            0.00060000      NO
          MAX step            0.00257533            0.00100000      NO
          ....................................................
          Max(Bonds)      0.0002      Max(Angles)    0.03
          Max(Dihed)        0.15      Max(Improp)    0.00
          -----------------------------------------------------------------

The optimization has not yet converged - more geometry cycles are needed


    ---------------------------------------------------------------------------
                         Redundant Internal Coordinates
                            (Angstroem and degrees)

        Definition                    Value    dE/dq     Step     New-Value
    ----------------------------------------------------------------------------
     1. B(C   1,O   0)                1.3830  0.000042 -0.0000    1.3830   
     2. B(C   2,C   1)                1.5500 -0.000024  0.0000    1.5501   
     3. B(N   3,C   2)                1.5159  0.000029 -0.0001    1.5159   
     4. B(C   4,C   1)                1.5610 -0.000068  0.0001    1.5611   
     5. B(C   4,N   3)                1.5158 -0.000075  0.0001    1.5159   
     6. B(C   5,C   1)                1.4969 -0.000155  0.0002    1.4971   
     7. B(C   6,C   5)                1.3239 -0.000196  0.0001    1.3240   
     8. B(H   7,O   0)                0.9640 -0.000013  0.0000    0.9640   
     9. B(H   8,C   2)                1.0882  0.000083 -0.0001    1.0881   
    10. B(H   9,C   2)                1.0873  0.000129 -0.0002    1.0871   
    11. B(H  10,N   3)                1.0186  0.000191 -0.0002    1.0183   
    12. B(H  11,N   3)                1.0188  0.000177 -0.0002    1.0186   
    13. B(H  12,C   4)                1.0880 -0.000001  0.0000    1.0880   
    14. B(H  13,C   4)                1.0878  0.000032 -0.0000    1.0877   
    15. B(H  14,C   5)                1.0880 -0.000121  0.0002    1.0882   
    16. B(H  15,C   6)                1.0849 -0.000043  0.0001    1.0849   
    17. B(H  16,C   6)                1.0828  0.000039 -0.0001    1.0827   
    18. A(C   1,O   0,H   7)          109.80 -0.000104    0.02    109.81   
    19. A(C   2,C   1,C   4)           87.28  0.000016   -0.00     87.28   
    20. A(O   0,C   1,C   2)          108.96  0.000029   -0.02    108.95   
    21. A(O   0,C   1,C   4)          113.96 -0.000013    0.00    113.96   
    22. A(C   2,C   1,C   5)          114.61 -0.000046    0.03    114.64   
    23. A(C   4,C   1,C   5)          114.02  0.000023   -0.01    114.01   
    24. A(O   0,C   1,C   5)          114.90 -0.000006    0.00    114.90   
    25. A(C   1,C   2,H   9)          118.30  0.000017    0.00    118.30   
    26. A(N   3,C   2,H   8)          110.13  0.000023   -0.01    110.12   
    27. A(N   3,C   2,H   9)          112.39  0.000007    0.01    112.39   
    28. A(C   1,C   2,N   3)           90.93 -0.000038    0.01     90.95   
    29. A(C   1,C   2,H   8)          112.03  0.000025   -0.02    112.01   
    30. A(H   8,C   2,H   9)          111.36 -0.000031    0.01    111.36   
    31. A(H  10,N   3,H  11)          107.84 -0.000016    0.01    107.85   
    32. A(C   4,N   3,H  11)          115.65 -0.000014    0.01    115.66   
    33. A(C   2,N   3,C   4)           90.18  0.000002    0.00     90.18   
    34. A(C   2,N   3,H  11)          115.56 -0.000001    0.00    115.56   
    35. A(C   4,N   3,H  10)          113.55  0.000019   -0.01    113.54   
    36. A(C   2,N   3,H  10)          113.48  0.000013   -0.01    113.47   
    37. A(C   1,C   4,N   3)           90.52  0.000013    0.00     90.52   
    38. A(N   3,C   4,H  13)          109.80  0.000012    0.01    109.81   
    39. A(C   1,C   4,H  13)          112.30 -0.000007   -0.00    112.30   
    40. A(N   3,C   4,H  12)          112.11 -0.000031   -0.00    112.11   
    41. A(C   1,C   4,H  12)          118.90 -0.000007    0.00    118.90   
    42. A(H  12,C   4,H  13)          111.34  0.000018   -0.01    111.34   
    43. A(C   6,C   5,H  14)          119.62 -0.000022    0.00    119.62   
    44. A(C   1,C   5,H  14)          116.09  0.000036   -0.01    116.09   
    45. A(C   1,C   5,C   6)          124.29 -0.000014    0.00    124.29   
    46. A(H  15,C   6,H  16)          116.57 -0.000046    0.01    116.58   
    47. A(C   5,C   6,H  16)          120.85  0.000020   -0.00    120.84   
    48. A(C   5,C   6,H  15)          122.57  0.000026   -0.00    122.57   
    49. D(C   2,C   1,O   0,H   7)    167.40 -0.000004   -0.03    167.36   
    50. D(C   5,C   1,O   0,H   7)     37.23  0.000039   -0.06     37.18   
    51. D(C   4,C   1,O   0,H   7)    -96.99  0.000024   -0.04    -97.03   
    52. D(H   8,C   2,C   1,O   0)     10.01  0.000002   -0.06      9.95   
    53. D(H   9,C   2,C   1,C   4)    123.97  0.000010   -0.06    123.91   
    54. D(N   3,C   2,C   1,C   5)   -107.47 -0.000007   -0.06   -107.53   
    55. D(H   9,C   2,C   1,C   5)      8.72 -0.000017   -0.05      8.68   
    56. D(H   9,C   2,C   1,O   0)   -121.60  0.000005   -0.06   -121.66   
    57. D(N   3,C   2,C   1,O   0)    122.21  0.000015   -0.07    122.14   
    58. D(H   8,C   2,C   1,C   4)   -104.42  0.000007   -0.06   -104.48   
    59. D(H   8,C   2,C   1,C   5)    140.33 -0.000020   -0.05    140.28   
    60. D(N   3,C   2,C   1,C   4)      7.78  0.000020   -0.07      7.71   
    61. D(C   4,N   3,C   2,C   1)     -8.00 -0.000021    0.08     -7.93   
    62. D(C   4,N   3,C   2,H   8)    105.91 -0.000005    0.06    105.98   
    63. D(H  11,N   3,C   2,H   9)    111.92 -0.000009    0.05    111.98   
    64. D(H  11,N   3,C   2,H   8)    -12.86  0.000009    0.05    -12.81   
    65. D(H  10,N   3,C   2,H   9)    -13.39  0.000002    0.05    -13.34   
    66. D(H  10,N   3,C   2,H   8)   -138.17  0.000020    0.05   -138.13   
    67. D(H  10,N   3,C   2,C   1)    107.91  0.000004    0.06    107.97   
    68. D(H  11,N   3,C   2,C   1)   -126.78 -0.000006    0.06   -126.71   
    69. D(C   4,N   3,C   2,H   9)   -129.30 -0.000023    0.07   -129.24   
    70. D(H  13,C   4,C   1,C   5)   -140.26 -0.000046    0.11   -140.15   
    71. D(H  13,C   4,C   1,C   2)    103.93 -0.000007    0.08    104.01   
    72. D(H  13,C   4,C   1,O   0)     -5.64 -0.000045    0.10     -5.53   
    73. D(H  12,C   4,C   1,C   5)     -7.75 -0.000033    0.10     -7.66   
    74. D(H  12,C   4,C   1,C   2)   -123.56  0.000006    0.07   -123.49   
    75. D(H  12,C   4,C   1,O   0)    126.87 -0.000032    0.09    126.96   
    76. D(N   3,C   4,C   1,C   5)    108.03 -0.000064    0.10    108.13   
    77. D(N   3,C   4,C   1,C   2)     -7.78 -0.000025    0.07     -7.71   
    78. D(C   1,C   4,N   3,C   2)      7.95  0.000023   -0.07      7.87   
    79. D(N   3,C   4,C   1,O   0)   -117.35 -0.000063    0.09   -117.25   
    80. D(H  13,C   4,N   3,H  10)    138.11  0.000003   -0.07    138.04   
    81. D(H  13,C   4,N   3,C   2)   -106.04  0.000023   -0.08   -106.12   
    82. D(H  12,C   4,N   3,H  11)   -111.67  0.000010   -0.06   -111.74   
    83. D(H  12,C   4,N   3,H  10)     13.78 -0.000006   -0.06     13.73   
    84. D(H  12,C   4,N   3,C   2)    129.64  0.000014   -0.07    129.56   
    85. D(C   1,C   4,N   3,H  11)    126.64  0.000020   -0.07    126.57   
    86. D(H  13,C   4,N   3,H  11)     12.65  0.000020   -0.07     12.58   
    87. D(C   1,C   4,N   3,H  10)   -107.90  0.000003   -0.06   -107.97   
    88. D(H  14,C   5,C   1,C   4)    -32.39 -0.000044    0.14    -32.25   
    89. D(H  14,C   5,C   1,C   2)     66.06 -0.000035    0.15     66.21   
    90. D(H  14,C   5,C   1,O   0)   -166.58 -0.000042    0.15   -166.44   
    91. D(C   6,C   5,C   1,C   4)    148.32 -0.000016    0.08    148.40   
    92. D(C   6,C   5,C   1,C   2)   -113.22 -0.000007    0.09   -113.14   
    93. D(C   6,C   5,C   1,O   0)     14.13 -0.000015    0.09     14.22   
    94. D(H  16,C   6,C   5,H  14)      0.68  0.000005   -0.02      0.66   
    95. D(H  16,C   6,C   5,C   1)    179.95 -0.000023    0.04    179.99   
    96. D(H  15,C   6,C   5,H  14)   -178.46 -0.000013    0.00   -178.46   
    97. D(H  15,C   6,C   5,C   1)      0.80 -0.000041    0.06      0.87   
    ----------------------------------------------------------------------------

         *************************************************************
         *                GEOMETRY OPTIMIZATION CYCLE   2            *
         *************************************************************
---------------------------------
CARTESIAN COORDINATES (ANGSTROEM)
---------------------------------
  O      0.000613   -0.000282    1.600614
  C     -0.023360   -0.055491    0.218973
  C      0.915069    1.041863   -0.344899
  N      1.727326    0.000379   -1.088783
  C      0.959030   -1.104348   -0.390765
  C     -1.391980   -0.078251   -0.387364
  C     -2.503365    0.218023    0.268415
  H     -0.716827   -0.533531    1.961458
  H      1.519611    1.501359    0.434434
  H      0.491769    1.789895   -1.010485
  H      1.585774    0.019774   -2.097022
  H      2.730671    0.018320   -0.913974
  H      0.572795   -1.840854   -1.092237
  H      1.587565   -1.569510    0.365374
  H     -1.444585   -0.349651   -1.439837
  H     -2.503898    0.518291    1.310971
  H     -3.465825    0.183495   -0.226331

----------------------------
CARTESIAN COORDINATES (A.U.)
----------------------------
  NO LB      ZA    FRAG    MASS        X           Y           Z
   0 O     8.0000    0    15.999          0.001158332705510         -0.000532240556026          3.024721282054396
   1 C     6.0000    0    12.011         -0.044144006970145         -0.104862109612107          0.413798938995430
   2 C     6.0000    0    12.011          1.729228930369456          1.968836233416935         -0.651764672600983
   3 N     7.0000    0    14.007          3.264173046471692          0.000716324481249         -2.057500758832887
   4 C     6.0000    0    12.011          1.812304507588210         -2.086914738522050         -0.738439294508093
   5 C     6.0000    0    12.011         -2.630461038285955         -0.147873070253720         -0.732012451641114
   6 C     6.0000    0    12.011         -4.730674536914503          0.412002935301760          0.507231092943345
   7 H     1.0000    0     1.008         -1.354605968075294         -1.008228231943831          3.706617525467110
   8 H     1.0000    0     1.008          2.871649539720641          2.837157467697470          0.820961720229310
   9 H     1.0000    0     1.008          0.929308397882567          3.382411465102656         -1.909540445750958
  10 H     1.0000    0     1.008          2.996678131740003          0.037366919509151         -3.962796863702492
  11 H     1.0000    0     1.008          5.160221192539576          0.034619759225075         -1.727161173841493
  12 H     1.0000    0     1.008          1.082425408269588         -3.478710573043794         -2.064029678745813
  13 H     1.0000    0     1.008          3.000062931588946         -2.965944482473841          0.690456579428154
  14 H     1.0000    0     1.008         -2.729869866343601         -0.660744252125354         -2.720898308918220
  15 H     1.0000    0     1.008         -4.731681685726879          0.979428267560716          2.477375905391030
  16 H     1.0000    0     1.008         -6.549460813194001          0.346755141899853         -0.427703734945665

--------------------------------
INTERNAL COORDINATES (ANGSTROEM)
--------------------------------
 O      0   0   0   0.000000     0.000     0.000
 C      1   0   0   1.382951     0.000     0.000
 C      2   1   0   1.550092   108.945     0.000
 N      3   2   1   1.515854    90.947   122.136
 C      4   3   2   1.515892    90.181   352.072
 C      2   1   3   1.497092   114.903   229.812
 C      6   2   1   1.324010   124.289    14.216
 H      1   2   3   0.963993   109.815   167.364
 H      3   2   1   1.088103   112.010     9.946
 H      3   2   1   1.087078   118.302   238.345
 H      4   3   2   1.018312   113.473   107.968
 H      4   3   2   1.018618   115.562   233.286
 H      5   4   3   1.087972   112.110   129.564
 H      5   4   3   1.087740   109.809   253.879
 H      6   2   1   1.088175   116.085   193.563
 H      7   6   2   1.084935   122.568     0.866
 H      7   6   2   1.082726   120.845   179.987

---------------------------
INTERNAL COORDINATES (A.U.)
---------------------------
 O      0   0   0   0.000000     0.000     0.000
 C      1   0   0   2.613399     0.000     0.000
 C      2   1   0   2.929249   108.945     0.000
 N      3   2   1   2.864549    90.947   122.136
 C      4   3   2   2.864620    90.181   352.072
 C      2   1   3   2.829093   114.903   229.812
 C      6   2   1   2.502016   124.289    14.216
 H      1   2   3   1.821683   109.815   167.364
 H      3   2   1   2.056217   112.010     9.946
 H      3   2   1   2.054280   118.302   238.345
 H      4   3   2   1.924331   113.473   107.968
 H      4   3   2   1.924908   115.562   233.286
 H      5   4   3   2.055969   112.110   129.564
 H      5   4   3   2.055531   109.809   253.879
 H      6   2   1   2.056353   116.085   193.563
 H      7   6   2   2.050230   122.568     0.866
 H      7   6   2   2.046056   120.845   179.987



           ************************************************************
           *        Program running with 8 parallel MPI-processes     *
           *              working on a common directory               *
           ************************************************************
           ************************************************************
           *              Shut down parallel processing               *
           ************************************************************


           ************************************************************
           *        Program running with 8 parallel MPI-processes     *
           *              working on a common directory               *
           ************************************************************

Diagonalization of the overlap matrix:
Smallest eigenvalue                        ... 8.265e-05
Time for diagonalization                   ...    0.294 sec
Threshold for overlap eigenvalues          ... 1.000e-08
Number of eigenvalues below threshold      ... 0
Time for construction of square roots      ...    0.021 sec
Total time needed                          ...    0.315 sec

-------------------
DFT GRID GENERATION
-------------------

General Integration Accuracy     IntAcc      ...  4.340
Radial Grid Type                 RadialGrid  ... Gauss-Chebyshev
Angular Grid (max. acc.)         AngularGrid ... Lebedev-194
Angular grid pruning method      GridPruning ... 3 (G Style)
Weight generation scheme         WeightScheme... Becke
Basis function cutoff            BFCut       ...    1.0000e-11
Integration weight cutoff        WCut        ...    1.0000e-14
Grids for H and He will be reduced by one unit

# of grid points (after initial pruning)     ...  38362 (   0.0 sec)
# of grid points (after weights+screening)   ...  35175 (   0.1 sec)
nearest neighbour list constructed           ...    0.0 sec
Grid point re-assignment to atoms done       ...    0.0 sec
Grid point division into batches done        ...    0.1 sec
Reduced shell lists constructed in    0.2 sec

Total number of grid points                  ...    35175
Total number of batches                      ...      557
Average number of points per batch           ...       63
Average number of grid points per atom       ...     2069
Average number of shells per batch           ...    94.99 (81.18%)
Average number of basis functions per batch  ...   238.39 (86.06%)
Average number of large shells per batch     ...    78.69 (82.84%)
Average number of large basis fcns per batch ...   197.73 (82.94%)
Maximum spatial batch extension              ...  13.77, 14.66, 12.43 au
Average spatial batch extension              ...   0.21,  0.21,  0.21 au

Time for grid setup =    0.642 sec

--------------
SCF ITERATIONS
--------------
ITER       Energy         Delta-E        Max-DP      RMS-DP      [F,P]     Damp
               ***  Starting incremental Fock matrix formation  ***
                      *** Initiating the SOSCF procedure ***
                      *** Re-Reading the Fockian *** 
                      *** Removing any level shift *** 
ITER      Energy       Delta-E        Grad      Rot      Max-DP    RMS-DP
  0   -325.97111735 -325.9711173465  0.000165  0.000165  0.000263  0.000009
               *** Restarting incremental Fock matrix formation ***
  1   -325.97112020  -0.0000028535  0.000086  0.000241  0.000143  0.000004
  2   -325.97112060  -0.0000004034  0.000021  0.000091  0.000048  0.000001
  3   -325.97112060   0.0000000055  0.000037  0.000053  0.000032  0.000001
  4   -325.97112062  -0.0000000269  0.000006  0.000017  0.000009  0.000000
  5   -325.97112062   0.0000000002  0.000007  0.000009  0.000005  0.000000
                  ***Gradient check signals convergence***
              ***Rediagonalizing the Fockian in SOSCF/NRSCF***

               *****************************************************
               *                     SUCCESS                       *
               *           SCF CONVERGED AFTER   6 CYCLES          *
               *****************************************************

Setting up the final grid:

General Integration Accuracy     IntAcc      ...  5.010
Radial Grid Type                 RadialGrid  ... Gauss-Chebyshev
Angular Grid (max. acc.)         AngularGrid ... Lebedev-434
Angular grid pruning method      GridPruning ... 3 (G Style)
Weight generation scheme         WeightScheme... Becke
Basis function cutoff            BFCut       ...    1.0000e-11
Integration weight cutoff        WCut        ...    1.0000e-14
Grids for H and He will be reduced by one unit

# of grid points (after initial pruning)     ... 141842 (   0.0 sec)
# of grid points (after weights+screening)   ... 128544 (   1.2 sec)
nearest neighbour list constructed           ...    0.0 sec
Grid point re-assignment to atoms done       ...    0.0 sec
Grid point division into batches done        ...    1.0 sec
Reduced shell lists constructed in    1.3 sec

Total number of grid points                  ...   128544
Total number of batches                      ...     2017
Average number of points per batch           ...       63
Average number of grid points per atom       ...     7561
Average number of shells per batch           ...    92.76 (79.28%)
Average number of basis functions per batch  ...   232.90 (84.08%)
Average number of large shells per batch     ...    75.86 (81.78%)
Average number of large basis fcns per batch ...   190.38 (81.74%)
Maximum spatial batch extension              ...  10.44, 11.92, 10.94 au
Average spatial batch extension              ...   0.14,  0.14,  0.14 au

Final grid set up in    2.8 sec
Final integration                            ... done (   1.3 sec)
Change in XC energy                          ...     0.000298878
Integrated number of electrons               ...    53.999997396
Previous integrated no of electrons          ...    53.999073993
Total Energy       :         -325.97082175 Eh           -8870.11701 eV
  Last Energy change         ...   -3.7920e-10  Tolerance :   1.0000e-08
  Last MAX-Density change    ...    3.4846e-06  Tolerance :   1.0000e-07
             **** THE GBW FILE WAS UPDATED (6545_+.gbw) ****
             **** DENSITY FILE WAS UPDATED (6545_+.scfp.tmp) ****
             **** ENERGY FILE WAS UPDATED (6545_+.en.tmp) ****
Total SCF time: 0 days 0 hours 0 min 47 sec 
           ************************************************************
           *              Shut down parallel processing               *
           ************************************************************

-------------------------   --------------------
FINAL SINGLE POINT ENERGY      -325.970821747096
-------------------------   --------------------



           ************************************************************
           *        Program running with 8 parallel MPI-processes     *
           *              working on a common directory               *
           ************************************************************
------------------------------------------------------------------------------
                         ORCA SCF GRADIENT CALCULATION
------------------------------------------------------------------------------

Gradient of the Kohn-Sham DFT energy:
Kohn-Sham wavefunction type      ... RKS
Hartree-Fock exchange scaling    ...    0.250
Number of operators              ...    1
Number of atoms                  ...   17
Basis set dimensions             ...  277
Integral neglect threshold       ... 2.5e-11
Integral primitive cutoff        ... 2.5e-12

Nuclear repulsion gradient       ... done
One Electron Gradient            ... done
Pre-screening matrix             ... done
Starting the two electron gradient:
Two electron gradient done
Exchange-correlation gradient    ... done

------------------
CARTESIAN GRADIENT
------------------

   1   O   :   -0.000037952    0.000044024    0.000053993
   2   C   :    0.000022911   -0.000059164    0.000018311
   3   C   :   -0.000042537   -0.000046662   -0.000020013
   4   N   :   -0.000040573   -0.000030101    0.000030892
   5   C   :   -0.000026936    0.000001830   -0.000039901
   6   C   :    0.000044192    0.000025521    0.000016853
   7   C   :    0.000069918   -0.000033035   -0.000048167
   8   H   :    0.000008823   -0.000031590   -0.000024764
   9   H   :    0.000010874    0.000011669   -0.000012482
  10   H   :    0.000016937    0.000036676    0.000018342
  11   H   :    0.000009031    0.000014729    0.000009444
  12   H   :    0.000007175   -0.000010849   -0.000045571
  13   H   :    0.000006639   -0.000030613    0.000024043
  14   H   :    0.000014509    0.000060579    0.000023009
  15   H   :   -0.000014340    0.000040010   -0.000017132
  16   H   :   -0.000036022   -0.000002166   -0.000006053
  17   H   :   -0.000012648    0.000009142    0.000019195

Norm of the cartesian gradient     ...    0.000220858
RMS gradient                       ...    0.000030926
MAX gradient                       ...    0.000069918

-------
TIMINGS
-------

Total SCF gradient time            ...       36.937 sec

One electron gradient       ....       0.175 sec  (  0.5%)
Prescreening matrices       ....       0.660 sec  (  1.8%)
Two electron gradient       ....      30.903 sec  ( 83.7%)
XC gradient                 ....       3.551 sec  (  9.6%)
           ************************************************************
           *              Shut down parallel processing               *
           ************************************************************
------------------------------------------------------------------------------
                         ORCA GEOMETRY RELAXATION STEP
------------------------------------------------------------------------------

Reading the OPT-File                    .... done
Getting information on internals        .... done
Copying old internal coords+grads       .... done
Making the new internal coordinates     .... (new redundants).... done
Validating the new internal coordinates .... (new redundants).... done
Calculating the B-matrix                .... done
Calculating the G,G- and P matrices     .... done
Transforming gradient to internals      .... done
Projecting the internal gradient        .... done
Number of atoms                         ....  17
Number of internal coordinates          ....  97
Current Energy                          ....  -325.970821747 Eh
Current gradient norm                   ....     0.000220858 Eh/bohr
Maximum allowed component of the step   ....  0.300
Current trust radius                    ....  0.300
Updating the Hessian (BFGS)             .... done
Forming the augmented Hessian           .... done
Diagonalizing the augmented Hessian     .... done
Last element of RFO vector              ....  0.999732767
Lowest eigenvalues of augmented Hessian:
 -0.000002420  0.004241971  0.012504664  0.025537640  0.026946335
Length of the computed step             ....  0.023123140
The final length of the internal step   ....  0.023123140
Converting the step to cartesian space:
 Initial RMS(Int)=    0.0023477992
Transforming coordinates:
 Iter   0:  RMS(Cart)=    0.0042729038 RMS(Int)=    0.6378594544
 Iter   1:  RMS(Cart)=    0.0000086479 RMS(Int)=    0.0000050156
 Iter   2:  RMS(Cart)=    0.0000000330 RMS(Int)=    0.0000000174
done
Storing new coordinates                 .... done

                                .--------------------.
          ----------------------|Geometry convergence|---------------------
          Item                value                 Tolerance   Converged
          -----------------------------------------------------------------
          Energy change      -0.00000143            0.00000100      NO
          RMS gradient        0.00001781            0.00003000      YES
          MAX gradient        0.00004972            0.00010000      YES
          RMS step            0.00234780            0.00060000      NO
          MAX step            0.00556034            0.00100000      NO
          ....................................................
          Max(Bonds)      0.0002      Max(Angles)    0.06
          Max(Dihed)        0.32      Max(Improp)    0.00
          -----------------------------------------------------------------

The optimization has not yet converged - more geometry cycles are needed


    ---------------------------------------------------------------------------
                         Redundant Internal Coordinates
                            (Angstroem and degrees)

        Definition                    Value    dE/dq     Step     New-Value
    ----------------------------------------------------------------------------
     1. B(C   1,O   0)                1.3830  0.000030 -0.0001    1.3829   
     2. B(C   2,C   1)                1.5501 -0.000007  0.0001    1.5501   
     3. B(N   3,C   2)                1.5159  0.000009 -0.0001    1.5158   
     4. B(C   4,C   1)                1.5611 -0.000031  0.0002    1.5613   
     5. B(C   4,N   3)                1.5159 -0.000025  0.0002    1.5161   
     6. B(C   5,C   1)                1.4971 -0.000037  0.0002    1.4973   
     7. B(C   6,C   5)                1.3240 -0.000039  0.0001    1.3242   
     8. B(H   7,O   0)                0.9640  0.000001  0.0000    0.9640   
     9. B(H   8,C   2)                1.0881  0.000002 -0.0001    1.0880   
    10. B(H   9,C   2)                1.0871  0.000008 -0.0001    1.0869   
    11. B(H  10,N   3)                1.0183 -0.000009 -0.0001    1.0182   
    12. B(H  11,N   3)                1.0186 -0.000002 -0.0001    1.0185   
    13. B(H  12,C   4)                1.0880  0.000004 -0.0000    1.0880   
    14. B(H  13,C   4)                1.0877 -0.000002 -0.0000    1.0877   
    15. B(H  14,C   5)                1.0882  0.000006  0.0001    1.0883   
    16. B(H  15,C   6)                1.0849 -0.000005  0.0001    1.0850   
    17. B(H  16,C   6)                1.0827  0.000001 -0.0000    1.0827   
    18. A(C   1,O   0,H   7)          109.81 -0.000050    0.03    109.84   
    19. A(C   2,C   1,C   4)           87.28  0.000007    0.01     87.29   
    20. A(O   0,C   1,C   2)          108.95  0.000021   -0.04    108.90   
    21. A(O   0,C   1,C   4)          113.96 -0.000002   -0.00    113.96   
    22. A(C   2,C   1,C   5)          114.64 -0.000037    0.06    114.70   
    23. A(C   4,C   1,C   5)          114.01  0.000002   -0.01    114.00   
    24. A(O   0,C   1,C   5)          114.90  0.000007   -0.00    114.90   
    25. A(C   1,C   2,H   9)          118.30  0.000013   -0.00    118.30   
    26. A(N   3,C   2,H   8)          110.12 -0.000000   -0.01    110.10   
    27. A(N   3,C   2,H   9)          112.39  0.000010    0.00    112.40   
    28. A(C   1,C   2,N   3)           90.95 -0.000014    0.02     90.97   
    29. A(C   1,C   2,H   8)          112.01  0.000011   -0.03    111.98   
    30. A(H   8,C   2,H   9)          111.36 -0.000019    0.02    111.38   
    31. A(H  10,N   3,H  11)          107.85 -0.000014    0.02    107.87   
    32. A(C   4,N   3,H  11)          115.66  0.000003    0.01    115.67   
    33. A(C   2,N   3,C   4)           90.18 -0.000000    0.01     90.19   
    34. A(C   2,N   3,H  11)          115.56  0.000007   -0.00    115.56   
    35. A(C   4,N   3,H  10)          113.54  0.000007   -0.03    113.51   
    36. A(C   2,N   3,H  10)          113.47  0.000001   -0.01    113.46   
    37. A(C   1,C   4,N   3)           90.52  0.000006    0.01     90.53   
    38. A(N   3,C   4,H  13)          109.81 -0.000001    0.02    109.83   
    39. A(C   1,C   4,H  13)          112.30 -0.000016    0.01    112.31   
    40. A(N   3,C   4,H  12)          112.11 -0.000006   -0.02    112.09   
    41. A(C   1,C   4,H  12)          118.90  0.000004   -0.01    118.89   
    42. A(H  12,C   4,H  13)          111.34  0.000011   -0.02    111.32   
    43. A(C   6,C   5,H  14)          119.62 -0.000032    0.01    119.64   
    44. A(C   1,C   5,H  14)          116.09  0.000007   -0.01    116.08   
    45. A(C   1,C   5,C   6)          124.29  0.000025   -0.01    124.28   
    46. A(H  15,C   6,H  16)          116.58 -0.000042    0.02    116.61   
    47. A(C   5,C   6,H  16)          120.84  0.000013   -0.01    120.84   
    48. A(C   5,C   6,H  15)          122.57  0.000029   -0.01    122.55   
    49. D(C   2,C   1,O   0,H   7)    167.36  0.000003   -0.10    167.27   
    50. D(C   5,C   1,O   0,H   7)     37.18  0.000030   -0.14     37.03   
    51. D(C   4,C   1,O   0,H   7)    -97.03  0.000020   -0.11    -97.14   
    52. D(H   8,C   2,C   1,O   0)      9.95  0.000008   -0.17      9.77   
    53. D(H   9,C   2,C   1,C   4)    123.91  0.000009   -0.16    123.76   
    54. D(N   3,C   2,C   1,C   5)   -107.53  0.000002   -0.17   -107.70   
    55. D(H   9,C   2,C   1,C   5)      8.68  0.000009   -0.16      8.52   
    56. D(H   9,C   2,C   1,O   0)   -121.66  0.000011   -0.17   -121.82   
    57. D(N   3,C   2,C   1,O   0)    122.14  0.000004   -0.18    121.95   
    58. D(H   8,C   2,C   1,C   4)   -104.48  0.000006   -0.17   -104.65   
    59. D(H   8,C   2,C   1,C   5)    140.28  0.000006   -0.16    140.11   
    60. D(N   3,C   2,C   1,C   4)      7.71  0.000002   -0.18      7.53   
    61. D(C   4,N   3,C   2,C   1)     -7.93 -0.000001    0.18     -7.75   
    62. D(C   4,N   3,C   2,H   8)    105.98  0.000005    0.15    106.13   
    63. D(H  11,N   3,C   2,H   9)    111.98 -0.000018    0.16    112.13   
    64. D(H  11,N   3,C   2,H   8)    -12.81 -0.000000    0.14    -12.67   
    65. D(H  10,N   3,C   2,H   9)    -13.34 -0.000005    0.14    -13.20   
    66. D(H  10,N   3,C   2,H   8)   -138.13  0.000013    0.13   -138.00   
    67. D(H  10,N   3,C   2,C   1)    107.97  0.000006    0.15    108.12   
    68. D(H  11,N   3,C   2,C   1)   -126.71 -0.000007    0.16   -126.55   
    69. D(C   4,N   3,C   2,H   9)   -129.24 -0.000012    0.17   -129.07   
    70. D(H  13,C   4,C   1,C   5)   -140.15 -0.000042    0.28   -139.88   
    71. D(H  13,C   4,C   1,C   2)    104.01 -0.000005    0.21    104.22   
    72. D(H  13,C   4,C   1,O   0)     -5.53 -0.000031    0.25     -5.29   
    73. D(H  12,C   4,C   1,C   5)     -7.66 -0.000040    0.26     -7.40   
    74. D(H  12,C   4,C   1,C   2)   -123.49 -0.000002    0.19   -123.30   
    75. D(H  12,C   4,C   1,O   0)    126.96 -0.000028    0.23    127.20   
    76. D(N   3,C   4,C   1,C   5)    108.13 -0.000041    0.25    108.37   
    77. D(N   3,C   4,C   1,C   2)     -7.71 -0.000003    0.18     -7.53   
    78. D(C   1,C   4,N   3,C   2)      7.87  0.000003   -0.18      7.69   
    79. D(N   3,C   4,C   1,O   0)   -117.25 -0.000029    0.22   -117.03   
    80. D(H  13,C   4,N   3,H  10)    138.04  0.000015   -0.19    137.85   
    81. D(H  13,C   4,N   3,C   2)   -106.12  0.000018   -0.20   -106.32   
    82. D(H  12,C   4,N   3,H  11)   -111.74  0.000017   -0.18   -111.92   
    83. D(H  12,C   4,N   3,H  10)     13.73  0.000006   -0.17     13.55   
    84. D(H  12,C   4,N   3,C   2)    129.56  0.000008   -0.19    129.38   
    85. D(C   1,C   4,N   3,H  11)    126.57  0.000012   -0.18    126.39   
    86. D(H  13,C   4,N   3,H  11)     12.58  0.000027   -0.20     12.38   
    87. D(C   1,C   4,N   3,H  10)   -107.97 -0.000000   -0.17   -108.13   
    88. D(H  14,C   5,C   1,C   4)    -32.25 -0.000018    0.29    -31.97   
    89. D(H  14,C   5,C   1,C   2)     66.21 -0.000028    0.32     66.53   
    90. D(H  14,C   5,C   1,O   0)   -166.44 -0.000026    0.31   -166.12   
    91. D(C   6,C   5,C   1,C   4)    148.40 -0.000008    0.20    148.60   
    92. D(C   6,C   5,C   1,C   2)   -113.14 -0.000018    0.23   -112.91   
    93. D(C   6,C   5,C   1,O   0)     14.22 -0.000015    0.23     14.44   
    94. D(H  16,C   6,C   5,H  14)      0.66  0.000003   -0.03      0.63   
    95. D(H  16,C   6,C   5,C   1)    179.99 -0.000007    0.06    180.05   
    96. D(H  15,C   6,C   5,H  14)   -178.46  0.000002   -0.01   -178.47   
    97. D(H  15,C   6,C   5,C   1)      0.87 -0.000009    0.08      0.94   
    ----------------------------------------------------------------------------

         *************************************************************
         *                GEOMETRY OPTIMIZATION CYCLE   3            *
         *************************************************************
---------------------------------
CARTESIAN COORDINATES (ANGSTROEM)
---------------------------------
  O      0.001821   -0.001054    1.599582
  C     -0.023650   -0.055968    0.218044
  C      0.914288    1.041988   -0.345615
  N      1.729442    0.001172   -1.087140
  C      0.958622   -1.104448   -0.392965
  C     -1.393192   -0.079890   -0.386743
  C     -2.503681    0.219360    0.269497
  H     -0.715923   -0.533169    1.961513
  H      1.516775    1.502696    0.434474
  H      0.491045    1.788718   -1.012453
  H      1.591304    0.021189   -2.095705
  H      2.731990    0.019287   -0.908657
  H      0.572592   -1.838505   -1.097097
  H      1.585245   -1.572763    0.362781
  H     -1.447199   -0.356293   -1.437943
  H     -2.502320    0.524309    1.310752
  H     -3.466773    0.182851   -0.223786

----------------------------
CARTESIAN COORDINATES (A.U.)
----------------------------
  NO LB      ZA    FRAG    MASS        X           Y           Z
   0 O     8.0000    0    15.999          0.003440650565696         -0.001992158239243          3.022771087456526
   1 C     6.0000    0    12.011         -0.044692883763059         -0.105763725587143          0.412043573300175
   2 C     6.0000    0    12.011          1.727753029894107          1.969071851159532         -0.653118235753077
   3 N     7.0000    0    14.007          3.268170850806765          0.002214199718940         -2.054396238317594
   4 C     6.0000    0    12.011          1.811532570240666         -2.087105094132622         -0.742596139496329
   5 C     6.0000    0    12.011         -2.632751706720627         -0.150970826454456         -0.730838510726691
   6 C     6.0000    0    12.011         -4.731271540079200          0.414530315010139          0.509275901217188
   7 H     1.0000    0     1.008         -1.352898315575523         -1.007542775795407          3.706723044711126
   8 H     1.0000    0     1.008          2.866288576591419          2.839684492697452          0.821036620893758
   9 H     1.0000    0     1.008          0.927939742074910          3.380187720965002         -1.913258914527173
  10 H     1.0000    0     1.008          3.007128400740188          0.040041678804168         -3.960307570358177
  11 H     1.0000    0     1.008          5.162713219345352          0.036446584674597         -1.717112515567574
  12 H     1.0000    0     1.008          1.082041255030666         -3.474270527897048         -2.073212750408238
  13 H     1.0000    0     1.008          2.995679436823408         -2.972090427283268          0.685556050438881
  14 H     1.0000    0     1.008         -2.734809558369041         -0.673296143498845         -2.717317779373826
  15 H     1.0000    0     1.008         -4.728699606128239          0.990801009320182          2.476961377609508
  16 H     1.0000    0     1.008         -6.551251618111677          0.345538642202163         -0.422893340077423

--------------------------------
INTERNAL COORDINATES (ANGSTROEM)
--------------------------------
 O      0   0   0   0.000000     0.000     0.000
 C      1   0   0   1.382863     0.000     0.000
 C      2   1   0   1.550144   108.905     0.000
 N      3   2   1   1.515794    90.970   121.953
 C      4   3   2   1.516060    90.191   352.253
 C      2   1   3   1.497326   114.898   229.766
 C      6   2   1   1.324155   124.283    14.441
 H      1   2   3   0.964000   109.844   167.268
 H      3   2   1   1.088017   111.979     9.773
 H      3   2   1   1.086928   118.299   238.179
 H      4   3   2   1.018178   113.461   108.122
 H      4   3   2   1.018473   115.558   233.450
 H      5   4   3   1.087961   112.093   129.377
 H      5   4   3   1.087716   109.829   253.675
 H      6   2   1   1.088272   116.078   193.877
 H      7   6   2   1.084991   122.553     0.945
 H      7   6   2   1.082685   120.836   180.047

---------------------------
INTERNAL COORDINATES (A.U.)
---------------------------
 O      0   0   0   0.000000     0.000     0.000
 C      1   0   0   2.613232     0.000     0.000
 C      2   1   0   2.929348   108.905     0.000
 N      3   2   1   2.864436    90.970   121.953
 C      4   3   2   2.864938    90.191   352.253
 C      2   1   3   2.829536   114.898   229.766
 C      6   2   1   2.502291   124.283    14.441
 H      1   2   3   1.821696   109.844   167.268
 H      3   2   1   2.056055   111.979     9.773
 H      3   2   1   2.053997   118.299   238.179
 H      4   3   2   1.924077   113.461   108.122
 H      4   3   2   1.924636   115.558   233.450
 H      5   4   3   2.055949   112.093   129.377
 H      5   4   3   2.055486   109.829   253.675
 H      6   2   1   2.056536   116.078   193.877
 H      7   6   2   2.050337   122.553     0.945
 H      7   6   2   2.045978   120.836   180.047



           ************************************************************
           *        Program running with 8 parallel MPI-processes     *
           *              working on a common directory               *
           ************************************************************
           ************************************************************
           *              Shut down parallel processing               *
           ************************************************************


           ************************************************************
           *        Program running with 8 parallel MPI-processes     *
           *              working on a common directory               *
           ************************************************************

Diagonalization of the overlap matrix:
Smallest eigenvalue                        ... 8.269e-05
Time for diagonalization                   ...    0.131 sec
Threshold for overlap eigenvalues          ... 1.000e-08
Number of eigenvalues below threshold      ... 0
Time for construction of square roots      ...    0.015 sec
Total time needed                          ...    0.146 sec

-------------------
DFT GRID GENERATION
-------------------

General Integration Accuracy     IntAcc      ...  4.340
Radial Grid Type                 RadialGrid  ... Gauss-Chebyshev
Angular Grid (max. acc.)         AngularGrid ... Lebedev-194
Angular grid pruning method      GridPruning ... 3 (G Style)
Weight generation scheme         WeightScheme... Becke
Basis function cutoff            BFCut       ...    1.0000e-11
Integration weight cutoff        WCut        ...    1.0000e-14
Grids for H and He will be reduced by one unit

# of grid points (after initial pruning)     ...  38362 (   0.0 sec)
# of grid points (after weights+screening)   ...  35178 (   0.1 sec)
nearest neighbour list constructed           ...    0.0 sec
Grid point re-assignment to atoms done       ...    0.0 sec
Grid point division into batches done        ...    0.1 sec
Reduced shell lists constructed in    0.2 sec

Total number of grid points                  ...    35178
Total number of batches                      ...      557
Average number of points per batch           ...       63
Average number of grid points per atom       ...     2069
Average number of shells per batch           ...    94.90 (81.11%)
Average number of basis functions per batch  ...   238.08 (85.95%)
Average number of large shells per batch     ...    78.63 (82.86%)
Average number of large basis fcns per batch ...   197.48 (82.94%)
Maximum spatial batch extension              ...  13.77, 14.66, 12.43 au
Average spatial batch extension              ...   0.21,  0.21,  0.21 au

Time for grid setup =    0.554 sec

--------------
SCF ITERATIONS
--------------
ITER       Energy         Delta-E        Max-DP      RMS-DP      [F,P]     Damp
               ***  Starting incremental Fock matrix formation  ***
                      *** Initiating the SOSCF procedure ***
                      *** Re-Reading the Fockian *** 
                      *** Removing any level shift *** 
ITER      Energy       Delta-E        Grad      Rot      Max-DP    RMS-DP
  0   -325.97110488 -325.9711048812  0.000353  0.000353  0.000783  0.000022
               *** Restarting incremental Fock matrix formation ***
  1   -325.97112110  -0.0000162142  0.000181  0.000509  0.000306  0.000009
  2   -325.97112327  -0.0000021761  0.000040  0.000144  0.000088  0.000002
  3   -325.97112331  -0.0000000377  0.000062  0.000109  0.000060  0.000001
  4   -325.97112334  -0.0000000292  0.000023  0.000032  0.000020  0.000001
  5   -325.97112334  -0.0000000066  0.000003  0.000004  0.000015  0.000000
                  ***Gradient check signals convergence***
              ***Rediagonalizing the Fockian in SOSCF/NRSCF***

               *****************************************************
               *                     SUCCESS                       *
               *           SCF CONVERGED AFTER   6 CYCLES          *
               *****************************************************

Setting up the final grid:

General Integration Accuracy     IntAcc      ...  5.010
Radial Grid Type                 RadialGrid  ... Gauss-Chebyshev
Angular Grid (max. acc.)         AngularGrid ... Lebedev-434
Angular grid pruning method      GridPruning ... 3 (G Style)
Weight generation scheme         WeightScheme... Becke
Basis function cutoff            BFCut       ...    1.0000e-11
Integration weight cutoff        WCut        ...    1.0000e-14
Grids for H and He will be reduced by one unit

# of grid points (after initial pruning)     ... 141842 (   0.0 sec)
# of grid points (after weights+screening)   ... 128557 (   0.4 sec)
nearest neighbour list constructed           ...    0.0 sec
Grid point re-assignment to atoms done       ...    0.0 sec
Grid point division into batches done        ...    1.2 sec
Reduced shell lists constructed in    1.5 sec

Total number of grid points                  ...   128557
Total number of batches                      ...     2017
Average number of points per batch           ...       63
Average number of grid points per atom       ...     7562
Average number of shells per batch           ...    92.76 (79.28%)
Average number of basis functions per batch  ...   232.96 (84.10%)
Average number of large shells per batch     ...    75.79 (81.71%)
Average number of large basis fcns per batch ...   189.95 (81.54%)
Maximum spatial batch extension              ...  10.43, 11.92, 10.94 au
Average spatial batch extension              ...   0.14,  0.14,  0.14 au

Final grid set up in    2.0 sec
Final integration                            ... done (   1.0 sec)
Change in XC energy                          ...     0.000299804
Integrated number of electrons               ...    53.999997191
Previous integrated no of electrons          ...    53.999085541
Total Energy       :         -325.97082354 Eh           -8870.11706 eV
  Last Energy change         ...    8.4924e-11  Tolerance :   1.0000e-08
  Last MAX-Density change    ...    6.8244e-06  Tolerance :   1.0000e-07
             **** THE GBW FILE WAS UPDATED (6545_+.gbw) ****
             **** DENSITY FILE WAS UPDATED (6545_+.scfp.tmp) ****
             **** ENERGY FILE WAS UPDATED (6545_+.en.tmp) ****
Total SCF time: 0 days 0 hours 0 min 47 sec 
           ************************************************************
           *              Shut down parallel processing               *
           ************************************************************

-------------------------   --------------------
FINAL SINGLE POINT ENERGY      -325.970823540650
-------------------------   --------------------



           ************************************************************
           *        Program running with 8 parallel MPI-processes     *
           *              working on a common directory               *
           ************************************************************
------------------------------------------------------------------------------
                         ORCA SCF GRADIENT CALCULATION
------------------------------------------------------------------------------

Gradient of the Kohn-Sham DFT energy:
Kohn-Sham wavefunction type      ... RKS
Hartree-Fock exchange scaling    ...    0.250
Number of operators              ...    1
Number of atoms                  ...   17
Basis set dimensions             ...  277
Integral neglect threshold       ... 2.5e-11
Integral primitive cutoff        ... 2.5e-12

Nuclear repulsion gradient       ... done
One Electron Gradient            ... done
Pre-screening matrix             ... done
Starting the two electron gradient:
Two electron gradient done
Exchange-correlation gradient    ... done

------------------
CARTESIAN GRADIENT
------------------

   1   O   :   -0.000047811    0.000018694   -0.000079114
   2   C   :    0.000128530    0.000007977    0.000259409
   3   C   :   -0.000074422    0.000062204   -0.000153313
   4   N   :    0.000232011    0.000040715    0.000052935
   5   C   :   -0.000105682   -0.000066555   -0.000184902
   6   C   :    0.000056552    0.000056341   -0.000035699
   7   C   :   -0.000124022   -0.000041056    0.000003518
   8   H   :    0.000008407   -0.000011390    0.000026003
   9   H   :    0.000002435   -0.000071258   -0.000031964
  10   H   :    0.000040230   -0.000018605    0.000088281
  11   H   :   -0.000039669    0.000006994    0.000125023
  12   H   :   -0.000097266    0.000001799   -0.000075768
  13   H   :    0.000025818   -0.000054073    0.000040348
  14   H   :   -0.000007762    0.000066540    0.000019390
  15   H   :   -0.000001814   -0.000025970   -0.000089770
  16   H   :   -0.000013907    0.000034416    0.000019493
  17   H   :    0.000018372   -0.000006774    0.000016131

Norm of the cartesian gradient     ...    0.000573502
RMS gradient                       ...    0.000080306
MAX gradient                       ...    0.000259409

-------
TIMINGS
-------

Total SCF gradient time            ...       36.068 sec

One electron gradient       ....       0.186 sec  (  0.5%)
Prescreening matrices       ....       0.337 sec  (  0.9%)
Two electron gradient       ....      30.249 sec  ( 83.9%)
XC gradient                 ....       3.883 sec  ( 10.8%)
           ************************************************************
           *              Shut down parallel processing               *
           ************************************************************
------------------------------------------------------------------------------
                         ORCA GEOMETRY RELAXATION STEP
------------------------------------------------------------------------------

Reading the OPT-File                    .... done
Getting information on internals        .... done
Copying old internal coords+grads       .... done
Making the new internal coordinates     .... (new redundants).... done
Validating the new internal coordinates .... (new redundants).... done
Calculating the B-matrix                .... done
Calculating the G,G- and P matrices     .... done
Transforming gradient to internals      .... done
Projecting the internal gradient        .... done
[...]
     19       0.008778   0.012811   0.006528   0.000650  -0.003877   0.001649
     20       0.052248  -0.067131   0.036993  -0.044336  -0.028456   0.008584
     21      -0.067144   0.051732   0.064132   0.084608  -0.033015  -0.031074
     22      -0.009198  -0.010729   0.010224   0.012908   0.002377  -0.006692
     23      -0.077030   0.071961   0.006014   0.001270  -0.015994   0.023957
     24      -0.148948   0.122833  -0.390345   0.075808  -0.130103   0.177063
     25       0.056700  -0.048789   0.084574   0.012662   0.004158  -0.028153
     26       0.247818  -0.072763   0.360032   0.013611   0.014900  -0.118719
     27       0.201906  -0.033777  -0.252443   0.016827  -0.056497   0.105989
     28      -0.123602   0.043764   0.150206   0.001789  -0.010636  -0.085402
     29      -0.282776   0.183847   0.457829  -0.035695  -0.028537  -0.294155
     30       0.015428   0.066730   0.145394  -0.280968   0.351638   0.055254
     31       0.073681  -0.008461   0.017526   0.147664  -0.134964  -0.029698
     32       0.068328   0.023451   0.037945  -0.036306   0.057498   0.003546
     33      -0.049191   0.159701   0.105288  -0.375677   0.383175   0.017070
     34       0.036533  -0.142349  -0.030087   0.267953  -0.223067  -0.041790
     35       0.036273   0.071544  -0.012501  -0.095080   0.092229   0.009314
     36       0.021054   0.107477  -0.067229  -0.059791   0.042440  -0.005639
     37       0.035773   0.138266  -0.104126  -0.084830   0.052798   0.033191
     38      -0.018256  -0.174050   0.150350   0.151557  -0.105236  -0.059203
     39       0.255820   0.413133  -0.295422  -0.190364   0.052539   0.085425
     40       0.191830   0.323044  -0.181898  -0.132422   0.016375   0.071615
     41      -0.187913  -0.402452   0.148149   0.180053  -0.037448  -0.083220
     42      -0.211136  -0.204429   0.373535   0.125002   0.304912   0.848948
     43      -0.019821  -0.031580   0.011166  -0.000572   0.014058   0.039103
     44       0.025374  -0.183332  -0.020574  -0.084315   0.021098   0.064397
     45      -0.177365   0.282704  -0.047436   0.271264   0.295298  -0.101723
     46      -0.083439   0.041925   0.001392   0.040097   0.072673  -0.009946
     47      -0.181172   0.324123  -0.139683   0.627126   0.619186  -0.169294
     48      -0.153368   0.139947   0.016436  -0.000965   0.006527  -0.003427
     49      -0.483850  -0.010772   0.108510  -0.171689   0.097931  -0.187045
     50       0.105049   0.030393  -0.040431   0.063189  -0.031104   0.064730
                 36         37         38         39         40         41    
      0      -0.041927   0.044725  -0.022275   0.019449  -0.000708   0.014381
      1      -0.002660   0.000841   0.013272   0.000520  -0.000058  -0.000095
      2      -0.193728   0.051184  -0.329347  -0.008962   0.030467   0.008855
      3       0.052090   0.006302  -0.042370   0.007697   0.008422  -0.002947
      4       0.001450  -0.000573   0.000068  -0.000478   0.001546  -0.002250
      5       0.093764  -0.004885  -0.052704  -0.004256   0.015931   0.001157
      6      -0.007001   0.001454   0.030283   0.012254  -0.067734   0.043143
      7       0.002174  -0.001103  -0.000704   0.002126  -0.009832   0.003452
      8       0.064359  -0.025788   0.021954   0.003711  -0.063606   0.034771
      9      -0.099700   0.011453   0.119517  -0.034815   0.036553  -0.002031
     10      -0.015852   0.001164   0.014387  -0.005378   0.004611  -0.005405
     11       0.005707  -0.016046   0.128496  -0.046560  -0.006808   0.011639
     12      -0.011438   0.020947   0.012270  -0.005885   0.049917  -0.016706
     13      -0.004856   0.002517  -0.005182  -0.001730   0.006576  -0.001180
     14       0.094750   0.004273   0.027391  -0.015995   0.056333  -0.008386
     15       0.092034  -0.003107  -0.099279   0.011511  -0.003226   0.009155
     16       0.003350  -0.000408  -0.009024   0.000082  -0.001021   0.001263
     17       0.089383  -0.014394  -0.009013   0.001738   0.005035   0.003857
     18       0.124400  -0.017493  -0.069376   0.013968   0.002598   0.011245
     19       0.001954  -0.000322   0.001433   0.000629  -0.000333   0.000135
     20      -0.062738   0.020206   0.244847   0.002136  -0.012116  -0.003962
     21      -0.273654  -0.920006  -0.220244  -0.007836  -0.037626   0.044835
     22      -0.043073  -0.108804  -0.029600  -0.003222  -0.003823   0.003542
     23      -0.081254  -0.342243  -0.107315  -0.013776   0.032177  -0.033263
     24      -0.115172  -0.029901   0.254348  -0.147913   0.086496   0.020398
     25       0.033326   0.000186  -0.035825  -0.000124   0.002578  -0.009902
     26       0.134785  -0.016329  -0.072261  -0.045387   0.025030  -0.032261
     27      -0.141013  -0.056779   0.242110   0.044996   0.330178  -0.704713
     28       0.021356   0.005647  -0.086829   0.002577  -0.013191  -0.059067
     29       0.072423  -0.010323  -0.190501  -0.006747   0.062475  -0.400838
     30      -0.441933  -0.018957   0.311688  -0.134386   0.003681   0.039932
     31       0.001601  -0.002444   0.123170   0.027295   0.040476   0.036973
     32      -0.104860  -0.016547   0.124846  -0.078046  -0.015137  -0.002524
     33      -0.520182   0.011147   0.333655  -0.144594  -0.101227   0.059133
     34       0.086514   0.012840   0.052267   0.052479   0.007674   0.037716
     35      -0.232962  -0.033401   0.260921   0.941306   0.183444   0.113145
     36      -0.010122   0.035169   0.061550  -0.004905  -0.132720   0.213923
     37       0.064775   0.003721  -0.041991   0.009959  -0.024474   0.014767
     38      -0.088134   0.019147   0.180144  -0.027527  -0.118698   0.183065
     39      -0.022162   0.033146  -0.153299   0.056952  -0.550196  -0.314317
     40       0.053396  -0.003284  -0.052100  -0.028987   0.010638  -0.022063
     41      -0.137995   0.037720   0.008511   0.167952  -0.676019  -0.320944
     42       0.379551  -0.036477  -0.013033   0.011764   0.021120  -0.076629
     43       0.011988  -0.000938   0.000531   0.000111   0.000720  -0.002337
     44       0.076425  -0.022464   0.011429   0.005056   0.001917   0.000269
     45       0.107524   0.018109  -0.000109   0.018149  -0.018952   0.010425
     46       0.015229   0.009522   0.004481   0.002008  -0.008561   0.005690
     47       0.026295   0.041591   0.320889   0.015202  -0.033607   0.000854
     48       0.108126  -0.001019  -0.116463   0.011648   0.021988  -0.016005
     49      -0.031123   0.052708  -0.184911  -0.003127  -0.038676   0.054384
     50       0.000185  -0.001263   0.135076  -0.017875   0.130661  -0.136706
                 42         43         44         45         46         47    
      0       0.010596  -0.002059   0.025344  -0.003548   0.008304  -0.013485
      1       0.001108  -0.000299   0.003675  -0.000333  -0.000496   0.003013
      2      -0.001972   0.004029   0.005892  -0.007007  -0.008877   0.004830
      3       0.014395  -0.006270  -0.005374   0.018703   0.000742   0.041794
      4       0.001940  -0.000573  -0.000701   0.003187  -0.001180   0.010762
      5       0.001715   0.003815   0.008930  -0.006992  -0.007839   0.003942
      6       0.030946   0.015495   0.000005   0.001671   0.000530  -0.018459
      7       0.003228   0.001303  -0.000193   0.001673  -0.000252   0.001441
      8       0.017246   0.023313   0.001052  -0.027115  -0.007955  -0.039951
      9       0.052025  -0.032925  -0.013175   0.035315  -0.018515   0.087111
     10       0.008407  -0.004729   0.003370   0.011714  -0.006307   0.041771
     11       0.051852  -0.020169  -0.013617   0.011199  -0.048683   0.030201
     12      -0.020604  -0.030845   0.004207  -0.022357   0.006075  -0.030501
     13      -0.004075  -0.001686   0.002884  -0.003169   0.000667  -0.004017
     14      -0.010796  -0.028040   0.012131  -0.032694  -0.006882  -0.033290
     15      -0.004473   0.004700  -0.006665  -0.001333   0.008900  -0.032353
     16      -0.001305   0.000723  -0.001124  -0.000215   0.000788  -0.005478
     17      -0.006391   0.007703   0.017422  -0.011755  -0.000669  -0.023396
     18      -0.006071   0.002585   0.005003  -0.007288   0.007842  -0.031443
     19       0.000371  -0.000149   0.001452  -0.000271  -0.000283   0.002422
     20       0.014167  -0.002188   0.046431   0.005832  -0.009228   0.044375
     21      -0.011388   0.000053   0.015765  -0.311065  -0.077118   0.128699
     22      -0.006527   0.000489   0.002992  -0.082986  -0.020528   0.035164
     23       0.078094  -0.010351  -0.009883   0.891685   0.191254  -0.265525
     24      -0.634333  -0.241579   0.058354   0.047770   0.051759   0.051847
     25      -0.095480  -0.042387   0.001098   0.013753   0.007623   0.027443
     26      -0.624104  -0.274015   0.008373   0.089185   0.033044   0.153936
     27      -0.069484   0.360490   0.137844  -0.083696   0.000775  -0.143872
     28       0.016628   0.028237  -0.002395   0.023926  -0.009813   0.050504
     29       0.006507   0.183817   0.026541   0.052183  -0.037805   0.126202
     30      -0.076827   0.006948  -0.023747  -0.040797  -0.118228  -0.305640
     31      -0.066149   0.002995   0.004113  -0.111084   0.086616  -0.594356
     32       0.098620   0.003903   0.016453  -0.183792   0.960741   0.155289
     33      -0.013280  -0.015008  -0.041185  -0.065722  -0.009164  -0.299499
     34       0.009432  -0.004373  -0.013408  -0.058772   0.043066  -0.381846
     35      -0.069137  -0.068830  -0.035538   0.024401   0.016132   0.074816
     36      -0.264744   0.652327  -0.107527   0.103147   0.005008   0.210837
     37      -0.018466   0.109503  -0.011039   0.027150  -0.002044   0.087749
     38      -0.269945   0.472160  -0.077066   0.018670   0.013753  -0.022905
     39      -0.016938  -0.121070  -0.033137   0.054877  -0.014861   0.155923
     40       0.019609  -0.012209   0.008189   0.026399  -0.013536   0.097806
     41      -0.099854  -0.110406  -0.045173  -0.036675   0.012067  -0.141907
     42       0.021475   0.017574   0.001780   0.010526  -0.014752   0.067541
     43      -0.000185   0.001038   0.003291   0.001913  -0.001510   0.005097
     44      -0.006695   0.007544   0.043142   0.001853  -0.002406  -0.009074
     45       0.004302   0.008848   0.019757  -0.005008   0.004060  -0.004246
     46       0.003097   0.001824   0.007482   0.000759  -0.000371   0.003477
     47       0.010834   0.009583   0.080320   0.012345  -0.002197   0.021130
     48       0.000986  -0.007561  -0.213453  -0.018093   0.010966  -0.012479
     49       0.001742  -0.010103  -0.133108  -0.012913   0.009088  -0.020428
     50      -0.003492  -0.051938  -0.935793  -0.047714   0.020934  -0.012534
                  48         49         50    
      0       0.005216  -0.098103   0.196365
      1       0.000231  -0.036560   0.091075
      2      -0.002065   0.015176  -0.064052
      3       0.009804  -0.350643  -0.149060
      4       0.001384  -0.076087  -0.017922
      5       0.005466  -0.153361  -0.036378
      6       0.002908   0.194190  -0.059569
      7       0.000916   0.032433  -0.000009
      8       0.014646   0.060427   0.149326
      9      -0.012570  -0.039601   0.025055
     10      -0.007908  -0.005428  -0.021421
     11       0.006909  -0.136073   0.042125
     12      -0.028525   0.275223   0.015037
     13      -0.005401   0.101827   0.031334
     14      -0.018576   0.162048  -0.108408
     15       0.004084   0.054474   0.093904
     16       0.000338   0.026181   0.047274
     17       0.004123  -0.048172   0.171411
     18      -0.000742   0.036302  -0.095891
     19      -0.001043   0.017602  -0.097848
     20      -0.012798   0.112993  -0.175705
     21      -0.007875   0.014967  -0.060170
     22      -0.000336  -0.028091   0.043336
     23      -0.013994   0.163170   0.019599
     24       0.050036  -0.257488   0.070733
     25       0.020480   0.034290  -0.011847
     26       0.068841   0.077535   0.046648
     27       0.060321  -0.026297   0.135089
     28       0.000178  -0.003364  -0.056282
     29       0.064596   0.027735   0.021937
     30      -0.248455  -0.192497   0.004782
     31      -0.522597  -0.593559  -0.322617
     32      -0.008662  -0.086155   0.011673
     33       0.444637  -0.070353  -0.027134
     34       0.663684  -0.174717  -0.389625
     35       0.018230  -0.076640   0.019535
     36      -0.017635   0.012558  -0.138816
     37      -0.002281   0.004820  -0.049010
     38      -0.034365  -0.044694   0.003802
     39      -0.062806   0.073890  -0.179892
     40       0.000958   0.076552  -0.078177
     41      -0.053322  -0.155295   0.023898
     42       0.014305  -0.061362  -0.099779
     43       0.000029  -0.026238   0.000237
     44      -0.000957  -0.018690   0.054642
     45       0.003111   0.082262  -0.382221
     46       0.001604  -0.034728  -0.051232
     47      -0.007728   0.098285   0.118236
     48       0.004836   0.034815  -0.457000
     49      -0.010144   0.185865   0.210245
     50      -0.010812   0.068791   0.108386


-----------
IR SPECTRUM
-----------

 Mode    freq (cm**-1)   T**2         TX         TY         TZ
-------------------------------------------------------------------
  41:       372.90   39.420960  (  2.174084  -0.954974  -5.812258)
  42:      1363.89    4.972491  ( -0.915966  -1.979632   0.463200)
  43:      1653.22   13.643001  ( -0.770925  -2.179559  -2.880660)
  44:      1954.65   14.628387  (  1.726760   1.423158  -3.101823)
  45:      2424.22   91.857117  (  2.952410  -5.830599   7.010314)
  46:      3057.30  124.659930  ( -1.422182  -1.724346  10.939102)
  47:      3774.40  124.939774  ( -4.186450  -9.108408   4.944726)
  48:      4982.97    2.345573  (  0.943638   1.182227   0.239709)
  49:      7431.75   80.908636  (  5.468347   6.093540  -3.724861)
  50:     12627.63  107.436872  (  4.047233   8.586194  -4.163418)

The first frequency considered to be a vibration is 41
The total number of vibrations considered is 10


--------------------------
THERMOCHEMISTRY AT 298.15K
--------------------------

Temperature         ... 298.15 K
Pressure            ... 1.00 atm
Total Mass          ... 100.14 AMU

Throughout the following assumptions are being made:
  (1) The electronic state is orbitally nondegenerate
  (2) There are no thermally accessible electronically excited states
  (3) Hindered rotations indicated by low frequency modes) are not
      treated as such but are treated as vibrations and this may
      case some error
  (4) All equations used are the standard statistical mechanics
      equations for an ideal gas
  (5) All vibrations are strinctly harmonic


------------
INNER ENERGY
------------

The inner energy is: U= E(el) + E(ZPE) + E(vib) + E(rot) + E(trans)
    E(el)   - is the total energy from the electronic structure calculation
              = E(kin-el) + E(nuc-el) + E(el-el) + E(nuc-nuc)
    E(ZPE)  - the the zero temperature vibrational energy from the frequency calculation
    E(vib)  - the the finite temperature correction to E(ZPE) due to population
              of excietd vibrational states
    E(rot)  - is the rotational thermal energy
    E(trans)- is the translational thermal energy

Summary of contributions to the inner energy U:
Electronic energy                ...   -325.97097064 Eh
Zero point energy                ...      0.09031324 Eh      56.67 kcal/mol
Thermal vibrational correction   ...      0.00034871 Eh       0.22 kcal/mol
Thermal rotational correction    ...      0.00141627 Eh       0.89 kcal/mol
Thermal translational correction ...      0.00141627 Eh       0.89 kcal/mol
-----------------------------------------------------------------------
Total thermal energy                   -325.87747615 Eh


Summary of corrections to the electronic energy:
(perhaps to be used in another calculation)
Total thermal correction                  0.00318125 Eh       2.00 kcal/mol
Non-thermal (ZPE) correction              0.09031324 Eh      56.67 kcal/mol
-----------------------------------------------------------------------
Total correction                          0.09349449 Eh      58.67 kcal/mol


--------
ENTHALPY
--------

The enthalpy is H = U + kB*T
                kB is Boltzmann's constant
Total free energy                 ...   -325.87747615 Eh 
Thermal Enthalpy correction       ...      0.00094421 Eh       0.59 kcal/mol
-----------------------------------------------------------------------
Total Enthalpy                    ...   -325.87653194 Eh


-------
ENTROPY
-------

The entropy contributions are T*S = T*(S(el)+S(vib)+S(rot)+S(trans)
     S(el)   - electronic entropy
     S(vib)  - vibrational entropy
     S(rot)  - rotational entropy
     S(trans)- translational entropy
The entropies will be listed as mutliplied by the temperature to get
units of energy

Electronic entropy                ...      0.00000000 Eh      0.00 kcal/mol
Vibrational entropy               ...      0.00052112 Eh      0.33 kcal/mol
Rotational entropy                ...      0.01193862 Eh      7.49 kcal/mol
Translational entropy             ...      0.01887324 Eh     11.84 kcal/mol
-----------------------------------------------------------------------
Final entropy term                ...      0.03133297 Eh     19.66 kcal/mol


CAUTION: The rotational entropy is not quite correctly treated here
         because it includes a symmetry number that is not yet correctly
         implemented in ORCA!
For a nonlinear molecule the correct rotational entropy is:
    S(rot) = R*(ln(qrot/sn)+1.5)
    R    = 8.31441 J/mol/K = 1.987191683e-3 kcal/mol/K
    qrot = 207529.8223970
    sn is the rotational symmetry number. We have assumed 3 here
       if it is different for your molecule then you should correct
       the printed rotational entropy by manually evaluating the equation
       as given above

For convenience we print out the resulting values for sn=1 - 12:
 sn= 1  qrot/sn=  207529.8224 T*S(rot)=     8.14 kcal/mol T*S(tot)=    20.31 kcal/mol
 sn= 2  qrot/sn=  103764.9112 T*S(rot)=     7.73 kcal/mol T*S(tot)=    19.90 kcal/mol
 sn= 3  qrot/sn=   69176.6075 T*S(rot)=     7.49 kcal/mol T*S(tot)=    19.66 kcal/mol
 sn= 4  qrot/sn=   51882.4556 T*S(rot)=     7.32 kcal/mol T*S(tot)=    19.49 kcal/mol
 sn= 5  qrot/sn=   41505.9645 T*S(rot)=     7.19 kcal/mol T*S(tot)=    19.36 kcal/mol
 sn= 6  qrot/sn=   34588.3037 T*S(rot)=     7.08 kcal/mol T*S(tot)=    19.25 kcal/mol
 sn= 7  qrot/sn=   29647.1175 T*S(rot)=     6.99 kcal/mol T*S(tot)=    19.16 kcal/mol
 sn= 8  qrot/sn=   25941.2278 T*S(rot)=     6.91 kcal/mol T*S(tot)=    19.08 kcal/mol
 sn= 9  qrot/sn=   23058.8692 T*S(rot)=     6.84 kcal/mol T*S(tot)=    19.01 kcal/mol
 sn=10  qrot/sn=   20752.9822 T*S(rot)=     6.78 kcal/mol T*S(tot)=    18.95 kcal/mol
 sn=11  qrot/sn=   18866.3475 T*S(rot)=     6.72 kcal/mol T*S(tot)=    18.89 kcal/mol
 sn=12  qrot/sn=   17294.1519 T*S(rot)=     6.67 kcal/mol T*S(tot)=    18.84 kcal/mol


-------------------
GIBBS FREE ENTHALPY
-------------------

The Gibbs free enthalpy is G = H - T*S

Total enthalpy                    ...   -325.87653194 Eh 
Total entropy correction          ...     -0.03133297 Eh    -19.66 kcal/mol
-----------------------------------------------------------------------
Final Gibbs free enthalpy         ...   -325.90786492 Eh

For completeness - the Gibbs free enthalpy minus the electronic energy
G-E(el)                           ...      0.06310573 Eh     39.60 kcal/mol


Timings for individual modules:

Sum of individual times         ...     3150.633 sec (=  52.511 min)
GTO integral calculation        ...       21.527 sec (=   0.359 min)   0.7 %
SCF iterations                  ...      614.976 sec (=  10.250 min)  19.5 %
SCF Gradient evaluation         ...      372.208 sec (=   6.203 min)  11.8 %
Geometry relaxation             ...        0.678 sec (=   0.011 min)   0.0 %
Analytical frequency calculation...     2141.245 sec (=  35.687 min)  68.0 %
                             ****ORCA TERMINATED NORMALLY****
TOTAL RUN TIME: 0 days 0 hours 52 minutes 32 seconds 968 msec
