
                                 *****************
                                 * O   R   C   A *
                                 *****************

           --- An Ab Initio, DFT and Semiempirical electronic structure package ---

                  #######################################################
                  #                        -***-                        #
                  #  Department of molecular theory and spectroscopy    #
                  #              Directorship: Frank Neese              #
                  # Max Planck Institute for Chemical Energy Conversion #
                  #                  D-45470 Muelheim/Ruhr              #
                  #                       Germany                       #
                  #                                                     #
                  #                  All rights reserved                #
                  #                        -***-                        #
                  #######################################################


                         Program Version 3.0.3 - RELEASE   -


 With contributions from (in alphabetic order):
   Ute Becker             : Parallelization
   Dmytro Bykov           : SCF Hessian
   Dmitry Ganyushin       : Spin-Orbit,Spin-Spin,Magnetic field MRCI
   Andreas Hansen         : Spin unrestricted coupled pair/coupled cluster methods
   Dimitrios Liakos       : Extrapolation schemes; parallel MDCI
   Robert Izsak           : Overlap fitted RIJCOSX, COSX-SCS-MP3
   Christian Kollmar      : KDIIS, OOCD, Brueckner-CCSD(T), CCSD density
   Simone Kossmann        : Meta GGA functionals, TD-DFT gradient, OOMP2, MP2 Hessian
   Taras Petrenko         : DFT Hessian,TD-DFT gradient, ASA and ECA modules, normal mode analysis, Resonance Raman, ABS, FL, XAS/XES, NRVS
   Christoph Reimann      : Effective Core Potentials
   Michael Roemelt        : Restricted open shell CIS
   Christoph Riplinger    : Improved optimizer, TS searches, QM/MM, DLPNO-CCSD
   Barbara Sandhoefer     : DKH picture change effects
   Igor Schapiro          : Molecular dynamics
   Kantharuban Sivalingam : CASSCF convergence, NEVPT2
   Boris Wezisla          : Elementary symmetry handling
   Frank Wennmohs         : Technical directorship


 We gratefully acknowledge several colleagues who have allowed us to
 interface, adapt or use parts of their codes:
   Stefan Grimme, W. Hujo, H. Kruse, T. Risthaus : VdW corrections, initial TS optimization,
                                                   DFT functionals, gCP
   Ed Valeev                                     : LibInt (2-el integral package), F12 methods
   Garnet Chan, S. Sharma, R. Olivares           : DMRG
   Ulf Ekstrom                                   : XCFun DFT Library
   Mihaly Kallay                                 : mrcc  (arbitrary order and MRCC methods)
   Andreas Klamt, Michael Diedenhofen            : otool_cosmo (COSMO solvation model)
   Frank Weinhold                                : gennbo (NPA and NBO analysis)
   Christopher J. Cramer and Donald G. Truhlar   : smd solvation model


 Your calculation uses the libint2 library for the computation of 2-el integrals
 For citations please refer to: http://libint.valeyev.net

 This ORCA versions uses:
   CBLAS   interface :  Fast vector & matrix operations
   LAPACKE interface :  Fast linear algebra routines
   SCALAPACK package :  Parallel linear algebra routines


Your calculation utilizes the basis: Ahlrichs-TZV
Cite in your paper:
H - Kr: A. Schaefer, H. Horn and R. Ahlrichs, J. Chem. Phys. 97, 2571 (1992).

The def2-TZV basis will be loaded
Cite in your paper:
 	F. Weigend, R. Ahlrichs, Phys. Chem. Chem. Phys. 2005, 7, 3297.

================================================================================
                                        WARNINGS
                       Please study these warnings very carefully!
================================================================================
Now building the actual basis set
WARNING: Geometry optimizations can change the point-group symmetry!

WARNING: Geometry Optimization
  ===> : Switching off AutoStart
         For restart on a previous wavefunction, please use MOREAD


INFO   : the flag for use of LIBINT has been found!

================================================================================
                                       INPUT FILE
================================================================================
NAME = 6760_+.inp
|  1> ! NORI PBE0 def2-TZVP UseSym TightOPT Freq TightSCF Grid3 FinalGrid5 XYZFile
|  2> % pal
|  3>     nprocs 8
|  4> end
|  5> %method
|  6>     SymThresh 5.0e-2
|  7> end
|  8> % geom 
|  9>     MaxIter 10
| 10> end 
| 11> % maxcore 2000
| 12> % output
| 13>     printlevel mini
| 14>     print[ P_Basis ] 0
| 15>     print[ P_SCFInfo ] 1
| 16>     print[ P_SCFIterInfo ] 1
| 17>     print[ P_OrbEn ] 0
| 18>     print[ P_Cartesian ] 0
| 19> end
| 20> % elprop
| 21>     Dipole false
| 22> end
| 23> *xyz 1 1
| 24>  O        2.8755505273     1.1935425432     0.3215130270 
| 25>  C        1.8919515229     0.2047193992     0.1366084876 
| 26>  C        2.5191627687    -1.0543233617     0.6522654748 
| 27>  N        2.0712735647    -2.0884456081     1.2258331978 
| 28>  N        3.8923144479    -1.0969460496     0.3659271744 
| 29>  C        4.7070026515    -1.6683873231     1.2217280840 
| 30>  C        6.0350273230    -1.6817540892     0.8301798610 
| 31>  H        3.1302255969     1.5821233614    -0.5204489113 
| 32>  H        1.6049718375     0.0725499413    -0.9116975717 
| 33>  H        0.9941687658     0.4482515114     0.7097893627 
| 34>  H        1.0543455806    -2.1821315524     1.2047431103 
| 35>  H        4.3701466327    -2.0380496767     2.1886117499 
| 36>  H        6.2963758493    -1.3358175664    -0.1652549376 
| 37>  H        6.8255129313    -2.0000415293     1.5041018911 
| 38> *
| 39> 
| 40>                          ****END OF INPUT****
================================================================================

The point group is C1 - hence turning off symmetry
If this is a round-off problem, please increase the symmetry
        detection tolerance (%method SymThresh)


                       *****************************
                       * Geometry Optimization Run *
                       *****************************

Geometry optimization settings:
Update method            Update   .... BFGS
Choice of coordinates    CoordSys .... Redundant Internals
Initial Hessian          InHess   .... Almoef's Model

Convergence Tolerances:
Energy Change            TolE     ....  1.0000e-06 Eh
Max. Gradient            TolMAXG  ....  1.0000e-04 Eh/bohr
RMS Gradient             TolRMSG  ....  3.0000e-05 Eh/bohr
Max. Displacement        TolMAXD  ....  1.0000e-03 bohr
RMS Displacement         TolRMSD  ....  6.0000e-04 bohr

------------------------------------------------------------------------------
                        ORCA OPTIMIZATION COORDINATE SETUP
------------------------------------------------------------------------------

The optimization will be done in new redundant internal coordinates
Making redundant internal coordinates   ...  (new redundants) done
Evaluating the initial hessian          ...  (Almloef) done
Evaluating the coordinates              ...  done
Calculating the B-matrix                .... done
Calculating the G-matrix                .... done
Diagonalizing the G-matrix              .... done
Small eigenvalue found = 1.915e-02
The first mode is                       ....   14
The number of degrees of freedom        ....   36

    -----------------------------------------------------------------
                    Redundant Internal Coordinates


    -----------------------------------------------------------------
         Definition                    Initial Value    Approx d2E/dq
    -----------------------------------------------------------------
      1. B(C   1,O   0)                  1.4069         0.525870   
      2. B(C   2,C   1)                  1.4982         0.419929   
      3. B(N   3,C   2)                  1.2645         0.887323   
      4. B(N   4,C   2)                  1.4033         0.532842   
      5. B(C   5,N   4)                  1.3125         0.743911   
      6. B(C   6,C   5)                  1.3846         0.637297   
      7. B(H   7,O   0)                  0.9616         0.516830   
      8. B(H   8,C   1)                  1.0949         0.353696   
      9. B(H   9,C   1)                  1.0926         0.356627   
     10. B(H  10,N   3)                  1.0215         0.414881   
     11. B(H  11,C   5)                  1.0886         0.361996   
     12. B(H  12,C   6)                  1.0858         0.365759   
     13. B(H  13,C   6)                  1.0864         0.364844   
     14. A(C   1,O   0,H   7)          110.7370         0.359462   
     15. A(O   0,C   1,C   2)          104.6390         0.390875   
     16. A(C   2,C   1,H   9)          110.5329         0.330102   
     17. A(C   2,C   1,H   8)          109.7451         0.329652   
     18. A(H   8,C   1,H   9)          108.2888         0.289581   
     19. A(O   0,C   1,H   8)          113.1987         0.340140   
     20. A(O   0,C   1,H   9)          110.4167         0.340609   
     21. A(C   1,C   2,N   4)          111.4042         0.391777   
     22. A(N   3,C   2,N   4)          114.4748         0.444691   
     23. A(C   1,C   2,N   3)          134.0360         0.428823   
     24. A(C   2,N   3,H  10)          114.7256         0.378690   
     25. A(C   2,N   4,C   5)          119.1793         0.430778   
     26. A(C   6,C   5,H  11)          123.0041         0.354873   
     27. A(N   4,C   5,H  11)          122.3385         0.362081   
     28. A(N   4,C   5,C   6)          114.5297         0.447863   
     29. A(H  12,C   6,H  13)          119.1376         0.292154   
     30. A(C   5,C   6,H  13)          121.6868         0.355346   
     31. A(C   5,C   6,H  12)          119.1473         0.355496   
     32. D(H   9,C   1,O   0,H   7)   -121.9125         0.021945   
     33. D(C   2,C   1,O   0,H   7)    119.1378         0.021945   
     34. D(H   8,C   1,O   0,H   7)     -0.3234         0.021945   
     35. D(N   3,C   2,C   1,H   9)     28.7024         0.013040   
     36. D(N   3,C   2,C   1,H   8)    -90.6688         0.013040   
     37. D(N   4,C   2,C   1,O   0)    -36.0671         0.013040   
     38. D(N   4,C   2,C   1,H   9)   -154.9383         0.013040   
     39. D(N   3,C   2,C   1,O   0)    147.5735         0.013040   
     40. D(N   4,C   2,C   1,H   8)     85.6906         0.013040   
     41. D(H  10,N   3,C   2,N   4)   -163.7984         0.062305   
     42. D(H  10,N   3,C   2,C   1)     12.4773         0.062305   
     43. D(C   5,N   4,C   2,N   3)    -37.0823         0.020479   
     44. D(C   5,N   4,C   2,C   1)    145.7927         0.020479   
     45. D(H  11,C   5,N   4,C   2)     -5.3174         0.041957   
     46. D(C   6,C   5,N   4,C   2)    178.6782         0.041957   
     47. D(H  13,C   6,C   5,H  11)     -4.5053         0.028203   
     48. D(H  13,C   6,C   5,N   4)    171.4691         0.028203   
     49. D(H  12,C   6,C   5,H  11)    177.4473         0.028203   
     50. D(H  12,C   6,C   5,N   4)     -6.5783         0.028203   
    -----------------------------------------------------------------

Number of atoms                         .... 14
Number of degrees of freedom            .... 50

         *************************************************************
         *                GEOMETRY OPTIMIZATION CYCLE   1            *
         *************************************************************


           ************************************************************
           *        Program running with 8 parallel MPI-processes     *
           *              working on a common directory               *
           ************************************************************
           ************************************************************
           *              Shut down parallel processing               *
           ************************************************************


           ************************************************************
           *        Program running with 8 parallel MPI-processes     *
           *              working on a common directory               *
           ************************************************************
------------
SCF SETTINGS
------------
Hamiltonian:
 Density Functional     Method          .... DFT(GTOs)
 Exchange Functional    Exchange        .... PBE
   PBE kappa parameter  XKappa          ....  0.804000
 Correlation Functional Correlation     .... PBE
 LDA part of GGA corr.  LDAOpt          .... PW91-LDA
 Gradients option       PostSCFGGA      .... off
 Hybrid DFT is turned on
   Fraction HF Exchange ScalHFX         ....  0.250000
   Scaling of DF-GGA-X  ScalDFX         ....  0.750000
   Scaling of DF-GGA-C  ScalDFC         ....  1.000000
   Scaling of DF-LDA-C  ScalLDAC        ....  1.000000
   Perturbative correction              ....  0.000000
   NL short-range parameter             ....  6.900000


General Settings:
 Integral files         IntName         .... 6760_+
 Hartree-Fock type      HFTyp           .... RHF
 Total Charge           Charge          ....    1
 Multiplicity           Mult            ....    1
 Number of Electrons    NEL             ....   52
 Basis Dimension        Dim             ....  259
 Nuclear Repulsion      ENuc            ....    288.3930923538 Eh

Convergence Acceleration:
 DIIS                   CNVDIIS         .... on
   Start iteration      DIISMaxIt       ....    12
   Startup error        DIISStart       ....  0.200000
   # of expansion vecs  DIISMaxEq       ....     5
   Bias factor          DIISBfac        ....   1.050
   Max. coefficient     DIISMaxC        ....  10.000
 Newton-Raphson         CNVNR           .... off
 SOSCF                  CNVSOSCF        .... on
   Start iteration      SOSCFMaxIt      ....   150
   Startup grad/error   SOSCFStart      ....  0.003300
 Level Shifting         CNVShift        .... on
   Level shift para.    LevelShift      ....    0.2500
   Turn off err/grad.   ShiftErr        ....    0.0010
 Zerner damping         CNVZerner       .... off
 Static damping         CNVDamp         .... on
   Fraction old density DampFac         ....    0.7000
   Max. Damping (<1)    DampMax         ....    0.9800
   Min. Damping (>=0)   DampMin         ....    0.0000
   Turn off err/grad.   DampErr         ....    0.1000
 Fernandez-Rico         CNVRico         .... off

SCF Procedure:
 Maximum # iterations   MaxIter         ....   125
 SCF integral mode      SCFMode         .... Direct
   Integral package                     .... LIBINT
 Reset frequeny         DirectResetFreq ....    20
 Integral Threshold     Thresh          ....  2.500e-11 Eh
 Primitive CutOff       TCut            ....  2.500e-12 Eh

Convergence Tolerance:
 Convergence Check Mode ConvCheckMode   .... Total+1el-Energy
 Energy Change          TolE            ....  1.000e-08 Eh
 1-El. energy change                    ....  1.000e-05 Eh
 Orbital Gradient       TolG            ....  1.000e-05
 Orbital Rotation angle TolX            ....  1.000e-05
 DIIS Error             TolErr          ....  5.000e-07


Diagonalization of the overlap matrix:
Smallest eigenvalue                        ... 2.322e-04
Time for diagonalization                   ...    0.106 sec
Threshold for overlap eigenvalues          ... 1.000e-08
Number of eigenvalues below threshold      ... 0
Time for construction of square roots      ...    0.025 sec
Total time needed                          ...    0.131 sec

-------------------
DFT GRID GENERATION
-------------------

General Integration Accuracy     IntAcc      ...  4.340
Radial Grid Type                 RadialGrid  ... Gauss-Chebyshev
Angular Grid (max. acc.)         AngularGrid ... Lebedev-194
Angular grid pruning method      GridPruning ... 3 (G Style)
Weight generation scheme         WeightScheme... Becke
Basis function cutoff            BFCut       ...    1.0000e-11
Integration weight cutoff        WCut        ...    1.0000e-14
Grids for H and He will be reduced by one unit

# of grid points (after initial pruning)     ...  33832 (   0.0 sec)
# of grid points (after weights+screening)   ...  31727 (   0.1 sec)
nearest neighbour list constructed           ...    0.0 sec
Grid point re-assignment to atoms done       ...    0.0 sec
Grid point division into batches done        ...    0.1 sec
Reduced shell lists constructed in    0.1 sec

Total number of grid points                  ...    31727
Total number of batches                      ...      502
Average number of points per batch           ...       63
Average number of grid points per atom       ...     2266
Average number of shells per batch           ...    73.97 (70.45%)
Average number of basis functions per batch  ...   188.03 (72.60%)
Average number of large shells per batch     ...    59.11 (79.91%)
Average number of large basis fcns per batch ...   147.61 (78.50%)
Maximum spatial batch extension              ...  10.48, 13.69, 15.57 au
Average spatial batch extension              ...   0.24,  0.26,  0.25 au

Time for grid setup =    0.645 sec

Loading Hartree-Fock densities                     ... done
Calculating cut-offs                               ... done
Setting up the integral package                    ... done
Initializing the effective Hamiltonian             ... done
Starting the Coulomb interaction                   ... done (   0.0 sec)
Reading the grid                                   ... done
Mapping shells                                     ... done
Starting the XC term evaluation                    ... done (   0.4 sec)
  promolecular density results
     # of electrons  =     52.997656659
     EX              =    -43.694560566
     EC              =     -1.742835813
     EX+EC           =    -45.437396379
Transforming the Hamiltonian                       ... done (   0.0 sec)
Diagonalizing the Hamiltonian                      ... done (   0.1 sec)
Back transforming the eigenvectors                 ... done (   0.0 sec)
Now organizing SCF variables                       ... done
--------------
SCF ITERATIONS
--------------
ITER       Energy         Delta-E        Max-DP      RMS-DP      [F,P]     Damp
               ***  Starting incremental Fock matrix formation  ***
  0   -340.5346404708   0.000000000000 0.06201405  0.00110719  0.2288254 0.7000
  1   -340.6154248398  -0.080784369015 0.04669743  0.00079345  0.0963469 0.7000
                               ***Turning on DIIS***
  2   -340.6426819231  -0.027257083272 0.04459564  0.00112514  0.0243134 0.0000
  3   -340.6846679288  -0.041986005657 0.04170313  0.00066821  0.0581691 0.0000
  4   -340.6979782653  -0.013310336538 0.00971167  0.00021451  0.0103354 0.0000
  5   -340.6987026116  -0.000724346261 0.00171621  0.00006242  0.0035726 0.0000
                      *** Initiating the SOSCF procedure ***
                           *** Shutting down DIIS ***
                      *** Re-Reading the Fockian *** 
                      *** Removing any level shift *** 
ITER      Energy       Delta-E        Grad      Rot      Max-DP    RMS-DP
  6   -340.69878743  -0.0000848216  0.000629  0.000629  0.000938  0.000028
               *** Restarting incremental Fock matrix formation ***
  7   -340.69880512  -0.0000176918  0.000323  0.002344  0.000791  0.000022
  8   -340.69881019  -0.0000050700  0.000440  0.001357  0.000648  0.000018
  9   -340.69881225  -0.0000020535  0.000291  0.000846  0.000269  0.000010
 10   -340.69881350  -0.0000012508  0.000090  0.000144  0.000154  0.000005
 11   -340.69881381  -0.0000003149  0.000059  0.000178  0.000103  0.000003
 12   -340.69881398  -0.0000001708  0.000015  0.000123  0.000052  0.000001
 13   -340.69881398   0.0000000041  0.000030  0.000123  0.000032  0.000001
 14   -340.69881400  -0.0000000183  0.000010  0.000028  0.000021  0.000001
 15   -340.69881400   0.0000000014  0.000007  0.000025  0.000017  0.000000
                  ***Gradient check signals convergence***
              ***Rediagonalizing the Fockian in SOSCF/NRSCF***

               *****************************************************
               *                     SUCCESS                       *
               *           SCF CONVERGED AFTER  16 CYCLES          *
               *****************************************************

Setting up the final grid:

General Integration Accuracy     IntAcc      ...  5.010
Radial Grid Type                 RadialGrid  ... Gauss-Chebyshev
Angular Grid (max. acc.)         AngularGrid ... Lebedev-434
Angular grid pruning method      GridPruning ... 3 (G Style)
Weight generation scheme         WeightScheme... Becke
Basis function cutoff            BFCut       ...    1.0000e-11
Integration weight cutoff        WCut        ...    1.0000e-14
Grids for H and He will be reduced by one unit

# of grid points (after initial pruning)     ... 121658 (   0.0 sec)
# of grid points (after weights+screening)   ... 113029 (   2.1 sec)
nearest neighbour list constructed           ...    0.0 sec
Grid point re-assignment to atoms done       ...    0.0 sec
Grid point division into batches done        ...    0.9 sec
Reduced shell lists constructed in    1.2 sec

Total number of grid points                  ...   113029
Total number of batches                      ...     1772
Average number of points per batch           ...       63
Average number of grid points per atom       ...     8074
Average number of shells per batch           ...    71.69 (68.27%)
Average number of basis functions per batch  ...   181.70 (70.16%)
Average number of large shells per batch     ...    56.86 (79.31%)
Average number of large basis fcns per batch ...   141.45 (77.85%)
Maximum spatial batch extension              ...  12.35, 11.74, 13.83 au
Average spatial batch extension              ...   0.16,  0.16,  0.17 au

Final grid set up in    4.2 sec
Final integration                            ... done (   0.8 sec)
Change in XC energy                          ...     0.000374360
Integrated number of electrons               ...    51.999997745
Previous integrated no of electrons          ...    52.000520267
Total Energy       :         -340.69843964 Eh           -9270.87586 eV
  Last Energy change         ...   -4.6365e-09  Tolerance :   1.0000e-08
  Last MAX-Density change    ...    5.4699e-06  Tolerance :   1.0000e-07
             **** THE GBW FILE WAS UPDATED (6760_+.gbw) ****
             **** DENSITY FILE WAS UPDATED (6760_+.scfp.tmp) ****
             **** ENERGY FILE WAS UPDATED (6760_+.en.tmp) ****
Total SCF time: 0 days 0 hours 1 min 29 sec 
           ************************************************************
           *              Shut down parallel processing               *
           ************************************************************

-------------------------   --------------------
FINAL SINGLE POINT ENERGY      -340.698439642486
-------------------------   --------------------



           ************************************************************
           *        Program running with 8 parallel MPI-processes     *
           *              working on a common directory               *
           ************************************************************
------------------------------------------------------------------------------
                         ORCA SCF GRADIENT CALCULATION
------------------------------------------------------------------------------

Gradient of the Kohn-Sham DFT energy:
Kohn-Sham wavefunction type      ... RKS
Hartree-Fock exchange scaling    ...    0.250
Number of operators              ...    1
Number of atoms                  ...   14
Basis set dimensions             ...  259
Integral neglect threshold       ... 2.5e-11
Integral primitive cutoff        ... 2.5e-12

Nuclear repulsion gradient       ... done
One Electron Gradient            ... done
Pre-screening matrix             ... done
Starting the two electron gradient:
Two electron gradient done
Exchange-correlation gradient    ... done

------------------
CARTESIAN GRADIENT
------------------

   1   O   :   -0.000073103   -0.000051542    0.000046756
   2   C   :    0.000113930   -0.000149854   -0.000007065
   3   C   :    0.000050337    0.000048832   -0.000019615
   4   N   :   -0.000029046    0.000019197    0.000024548
   5   N   :    0.000004986   -0.000026931    0.000024212
   6   C   :    0.000089904    0.000078349   -0.000059272
   7   C   :   -0.000174960   -0.000079083   -0.000001332
   8   H   :   -0.000023947    0.000063654   -0.000040288
   9   H   :    0.000030781    0.000167299    0.000010788
  10   H   :   -0.000064564   -0.000030592    0.000030495
  11   H   :   -0.000011159   -0.000032381   -0.000070210
  12   H   :   -0.000046892   -0.000101066    0.000063800
  13   H   :    0.000104760    0.000098975   -0.000044376
  14   H   :    0.000028973   -0.000004857    0.000041559

Norm of the cartesian gradient     ...    0.000444950
RMS gradient                       ...    0.000068657
MAX gradient                       ...    0.000174960

-------
TIMINGS
-------

Total SCF gradient time            ...       24.837 sec

One electron gradient       ....       0.115 sec  (  0.5%)
Prescreening matrices       ....       0.409 sec  (  1.6%)
Two electron gradient       ....      20.923 sec  ( 84.2%)
XC gradient                 ....       2.663 sec  ( 10.7%)
           ************************************************************
           *              Shut down parallel processing               *
           ************************************************************
------------------------------------------------------------------------------
                         ORCA GEOMETRY RELAXATION STEP
------------------------------------------------------------------------------

Reading the OPT-File                    .... done
Getting information on internals        .... done
Copying old internal coords+grads       .... done
Making the new internal coordinates     .... (new redundants).... done
Validating the new internal coordinates .... (new redundants).... done
Calculating the B-matrix                .... done
Calculating the G,G- and P matrices     .... done
Transforming gradient to internals      .... done
Projecting the internal gradient        .... done
Number of atoms                         ....  14
Number of internal coordinates          ....  50
Current Energy                          ....  -340.698439642 Eh
Current gradient norm                   ....     0.000444950 Eh/bohr
Maximum allowed component of the step   ....  0.300
Current trust radius                    ....  0.300
Evaluating the initial hessian          ....  (Almloef) done
Projecting the Hessian                  .... done
Forming the augmented Hessian           .... done
Diagonalizing the augmented Hessian     .... done
Last element of RFO vector              ....  0.999987344
Lowest eigenvalues of augmented Hessian:
 -0.000000982  0.013039748  0.020479387  0.021945477  0.025196259
Length of the computed step             ....  0.005031094
The final length of the internal step   ....  0.005031094
Converting the step to cartesian space:
 Initial RMS(Int)=    0.0007115041
Transforming coordinates:
 Iter   0:  RMS(Cart)=    0.0016979790 RMS(Int)=    0.0007115396
 Iter   1:  RMS(Cart)=    0.0000015184 RMS(Int)=    0.0000009348
 Iter   2:  RMS(Cart)=    0.0000000026 RMS(Int)=    0.0000000012
done
Storing new coordinates                 .... done

                                .--------------------.
          ----------------------|Geometry convergence|---------------------
          Item                value                 Tolerance   Converged
          -----------------------------------------------------------------
          RMS gradient        0.00006415            0.00003000      NO
          MAX gradient        0.00018398            0.00010000      NO
          RMS step            0.00071150            0.00060000      NO
          MAX step            0.00169838            0.00100000      NO
          ....................................................
          Max(Bonds)      0.0002      Max(Angles)    0.03
          Max(Dihed)        0.10      Max(Improp)    0.00
          -----------------------------------------------------------------

The optimization has not yet converged - more geometry cycles are needed


    ---------------------------------------------------------------------------
                         Redundant Internal Coordinates
                            (Angstroem and degrees)

        Definition                    Value    dE/dq     Step     New-Value
    ----------------------------------------------------------------------------
     1. B(C   1,O   0)                1.4069  0.000083 -0.0001    1.4068   
     2. B(C   2,C   1)                1.4982  0.000037 -0.0000    1.4981   
     3. B(N   3,C   2)                1.2645  0.000008 -0.0000    1.2645   
     4. B(N   4,C   2)                1.4033 -0.000013  0.0000    1.4033   
     5. B(C   5,N   4)                1.3125 -0.000005  0.0000    1.3125   
     6. B(C   6,C   5)                1.3846  0.000040 -0.0000    1.3846   
     7. B(H   7,O   0)                0.9616 -0.000049  0.0001    0.9617   
     8. B(H   8,C   1)                1.0949 -0.000164  0.0002    1.0951   
     9. B(H   9,C   1)                1.0926 -0.000058  0.0001    1.0927   
    10. B(H  10,N   3)                1.0215 -0.000014  0.0000    1.0215   
    11. B(H  11,C   5)                1.0886 -0.000124  0.0002    1.0888   
    12. B(H  12,C   6)                1.0858 -0.000147  0.0002    1.0860   
    13. B(H  13,C   6)                1.0864 -0.000040  0.0001    1.0865   
    14. A(C   1,O   0,H   7)          110.74  0.000083   -0.01    110.72   
    15. A(O   0,C   1,C   2)          104.64 -0.000135    0.02    104.66   
    16. A(C   2,C   1,H   9)          110.53  0.000095   -0.02    110.51   
    17. A(C   2,C   1,H   8)          109.75  0.000039   -0.01    109.74   
    18. A(H   8,C   1,H   9)          108.29 -0.000039    0.00    108.29   
    19. A(O   0,C   1,H   8)          113.20  0.000027    0.00    113.20   
    20. A(O   0,C   1,H   9)          110.42  0.000017   -0.00    110.42   
    21. A(C   1,C   2,N   4)          111.40 -0.000123    0.02    111.42   
    22. A(N   3,C   2,N   4)          114.47 -0.000061    0.01    114.48   
    23. A(C   1,C   2,N   3)          134.04  0.000184   -0.03    134.01   
    24. A(C   2,N   3,H  10)          114.73  0.000100   -0.02    114.71   
    25. A(C   2,N   4,C   5)          119.18 -0.000059    0.01    119.19   
    26. A(C   6,C   5,H  11)          123.00  0.000023   -0.00    123.00   
    27. A(N   4,C   5,H  11)          122.34 -0.000042    0.01    122.35   
    28. A(N   4,C   5,C   6)          114.53  0.000018   -0.00    114.53   
    29. A(H  12,C   6,H  13)          119.14  0.000035   -0.01    119.13   
    30. A(C   5,C   6,H  13)          121.69 -0.000002    0.00    121.69   
    31. A(C   5,C   6,H  12)          119.15 -0.000034    0.01    119.15   
    32. D(H   9,C   1,O   0,H   7)   -121.91 -0.000002    0.05   -121.86   
    33. D(C   2,C   1,O   0,H   7)    119.14 -0.000046    0.07    119.20   
    34. D(H   8,C   1,O   0,H   7)     -0.32 -0.000021    0.06     -0.26   
    35. D(N   3,C   2,C   1,H   9)     28.70  0.000035   -0.09     28.61   
    36. D(N   3,C   2,C   1,H   8)    -90.67 -0.000001   -0.08    -90.75   
    37. D(N   4,C   2,C   1,O   0)    -36.07  0.000027   -0.10    -36.16   
    38. D(N   4,C   2,C   1,H   9)   -154.94  0.000036   -0.10   -155.04   
    39. D(N   3,C   2,C   1,O   0)    147.57  0.000026   -0.09    147.48   
    40. D(N   4,C   2,C   1,H   8)     85.69  0.000001   -0.09     85.60   
    41. D(H  10,N   3,C   2,N   4)   -163.80  0.000049   -0.04   -163.84   
    42. D(H  10,N   3,C   2,C   1)     12.48  0.000049   -0.05     12.43   
    43. D(C   5,N   4,C   2,N   3)    -37.08 -0.000012    0.05    -37.04   
    44. D(C   5,N   4,C   2,C   1)    145.79 -0.000023    0.05    145.85   
    45. D(H  11,C   5,N   4,C   2)     -5.32  0.000007   -0.00     -5.32   
    46. D(C   6,C   5,N   4,C   2)    178.68  0.000032   -0.05    178.63   
    47. D(H  13,C   6,C   5,H  11)     -4.51 -0.000009    0.02     -4.48   
    48. D(H  13,C   6,C   5,N   4)    171.47 -0.000037    0.07    171.54   
    49. D(H  12,C   6,C   5,H  11)    177.45  0.000012   -0.02    177.43   
    50. D(H  12,C   6,C   5,N   4)     -6.58 -0.000016    0.03     -6.55   
    ----------------------------------------------------------------------------

         *************************************************************
         *                GEOMETRY OPTIMIZATION CYCLE   2            *
         *************************************************************
---------------------------------
CARTESIAN COORDINATES (ANGSTROEM)
---------------------------------
  O      0.001539    0.000538    2.109057
  C      1.085006   -0.588643    1.432184
  C      0.869579   -0.235886   -0.007780
  N      1.643232    0.000812   -0.979591
  N     -0.494451   -0.238660   -0.337633
  C     -0.941015    0.622920   -1.221334
  C     -2.293873    0.515796   -1.495831
  H     -0.525513   -0.668747    2.555292
  H      1.123359   -1.677316    1.544558
  H      2.029909   -0.173307    1.790933
  H      2.620984   -0.246071   -0.816959
  H     -0.308819    1.399323   -1.649012
  H     -2.856836   -0.308464   -1.068051
  H     -2.813041    1.252034   -2.103193

----------------------------
CARTESIAN COORDINATES (A.U.)
----------------------------
  NO LB      ZA    FRAG    MASS        X           Y           Z
   0 O     8.0000    0    15.999          0.002907421725030          0.001016286070966          3.985540777893292
   1 C     6.0000    0    12.011          2.050364879017320         -1.112374380490244          2.706435992285849
   2 C     6.0000    0    12.011          1.643265655880473         -0.445759141998958         -0.014702640822555
   3 N     7.0000    0    14.007          3.105257798324296          0.001535049157167         -1.851159376951043
   4 N     7.0000    0    14.007         -0.934377131590581         -0.451001470263584         -0.638034571457268
   5 C     6.0000    0    12.011         -1.778260764362096          1.177148550987008         -2.307987461079468
   6 C     6.0000    0    12.011         -4.334790905803373          0.974713010614927         -2.826710737310310
   7 H     1.0000    0     1.008         -0.993075871106323         -1.263749092349292          4.828801475565863
   8 H     1.0000    0     1.008          2.122841147220016         -3.169668560564319          2.918791317654392
   9 H     1.0000    0     1.008          3.835971199244639         -0.327501940557108          3.384372637481325
  10 H     1.0000    0     1.008          4.952942142258594         -0.465006964760283         -1.543827875532684
  11 H     1.0000    0     1.008         -0.583583187179029          2.644336668900908         -3.116181701357412
  12 H     1.0000    0     1.008         -5.398638077771862         -0.582912910367770         -2.018324731537645
  13 H     1.0000    0     1.008         -5.315877988486415          2.366001700347730         -3.974458853086181

--------------------------------
INTERNAL COORDINATES (ANGSTROEM)
--------------------------------
 O      0   0   0   0.000000     0.000     0.000
 C      1   0   0   1.406838     0.000     0.000
 C      2   1   0   1.498114   104.661     0.000
 N      3   2   1   1.264508   134.011   147.483
 N      3   2   1   1.403349   111.422   323.836
 C      5   3   2   1.312504   119.187   145.845
 C      6   5   3   1.384575   114.528   178.628
 H      1   2   3   0.961692   110.724   119.205
 H      2   1   3   1.095129   113.199   240.531
 H      2   1   3   1.092724   110.415   118.937
 H      4   3   2   1.021470   114.710    12.429
 H      6   5   3   1.088752   122.346   354.680
 H      7   6   5   1.085969   119.154   353.450
 H      7   6   5   1.086495   121.688   171.540

---------------------------
INTERNAL COORDINATES (A.U.)
---------------------------
 O      0   0   0   0.000000     0.000     0.000
 C      1   0   0   2.658539     0.000     0.000
 C      2   1   0   2.831025   104.661     0.000
 N      3   2   1   2.389575   134.011   147.483
 N      3   2   1   2.651945   111.422   323.836
 C      5   3   2   2.480273   119.187   145.845
 C      6   5   3   2.616467   114.528   178.628
 H      1   2   3   1.817334   110.724   119.205
 H      2   1   3   2.069494   113.199   240.531
 H      2   1   3   2.064949   110.415   118.937
 H      4   3   2   1.930298   114.710    12.429
 H      6   5   3   2.057443   122.346   354.680
 H      7   6   5   2.052184   119.154   353.450
 H      7   6   5   2.053178   121.688   171.540



           ************************************************************
           *        Program running with 8 parallel MPI-processes     *
           *              working on a common directory               *
           ************************************************************
           ************************************************************
           *              Shut down parallel processing               *
           ************************************************************


           ************************************************************
           *        Program running with 8 parallel MPI-processes     *
           *              working on a common directory               *
           ************************************************************

Diagonalization of the overlap matrix:
Smallest eigenvalue                        ... 2.322e-04
Time for diagonalization                   ...    0.285 sec
Threshold for overlap eigenvalues          ... 1.000e-08
Number of eigenvalues below threshold      ... 0
Time for construction of square roots      ...    0.023 sec
Total time needed                          ...    0.308 sec

-------------------
DFT GRID GENERATION
-------------------

General Integration Accuracy     IntAcc      ...  4.340
Radial Grid Type                 RadialGrid  ... Gauss-Chebyshev
Angular Grid (max. acc.)         AngularGrid ... Lebedev-194
Angular grid pruning method      GridPruning ... 3 (G Style)
Weight generation scheme         WeightScheme... Becke
Basis function cutoff            BFCut       ...    1.0000e-11
Integration weight cutoff        WCut        ...    1.0000e-14
Grids for H and He will be reduced by one unit

# of grid points (after initial pruning)     ...  33832 (   0.0 sec)
# of grid points (after weights+screening)   ...  31727 (   0.1 sec)
nearest neighbour list constructed           ...    0.0 sec
Grid point re-assignment to atoms done       ...    0.0 sec
Grid point division into batches done        ...    0.1 sec
Reduced shell lists constructed in    0.1 sec

Total number of grid points                  ...    31727
Total number of batches                      ...      502
Average number of points per batch           ...       63
Average number of grid points per atom       ...     2266
Average number of shells per batch           ...    73.97 (70.45%)
Average number of basis functions per batch  ...   188.03 (72.60%)
Average number of large shells per batch     ...    59.09 (79.89%)
Average number of large basis fcns per batch ...   147.53 (78.46%)
Maximum spatial batch extension              ...  10.49, 13.70, 15.57 au
Average spatial batch extension              ...   0.24,  0.26,  0.25 au

Time for grid setup =    0.542 sec

--------------
SCF ITERATIONS
--------------
ITER       Energy         Delta-E        Max-DP      RMS-DP      [F,P]     Damp
               ***  Starting incremental Fock matrix formation  ***
                      *** Initiating the SOSCF procedure ***
                      *** Re-Reading the Fockian *** 
                      *** Removing any level shift *** 
ITER      Energy       Delta-E        Grad      Rot      Max-DP    RMS-DP
  0   -340.69881227 -340.6988122713  0.000125  0.000125  0.000361  0.000008
               *** Restarting incremental Fock matrix formation ***
  1   -340.69881447  -0.0000022025  0.000047  0.000344  0.000146  0.000004
  2   -340.69881477  -0.0000002988  0.000019  0.000165  0.000163  0.000003
  3   -340.69881474   0.0000000331  0.000033  0.000087  0.000094  0.000002
  4   -340.69881480  -0.0000000652  0.000006  0.000048  0.000023  0.000000
  5   -340.69881480   0.0000000040  0.000014  0.000034  0.000016  0.000000
                  ***Gradient check signals convergence***
              ***Rediagonalizing the Fockian in SOSCF/NRSCF***

               *****************************************************
               *                     SUCCESS                       *
               *           SCF CONVERGED AFTER   6 CYCLES          *
               *****************************************************

Setting up the final grid:

General Integration Accuracy     IntAcc      ...  5.010
Radial Grid Type                 RadialGrid  ... Gauss-Chebyshev
Angular Grid (max. acc.)         AngularGrid ... Lebedev-434
Angular grid pruning method      GridPruning ... 3 (G Style)
Weight generation scheme         WeightScheme... Becke
Basis function cutoff            BFCut       ...    1.0000e-11
Integration weight cutoff        WCut        ...    1.0000e-14
Grids for H and He will be reduced by one unit

# of grid points (after initial pruning)     ... 121658 (   0.0 sec)
# of grid points (after weights+screening)   ... 113029 (   0.1 sec)
nearest neighbour list constructed           ...    0.0 sec
Grid point re-assignment to atoms done       ...    0.0 sec
Grid point division into batches done        ...    0.9 sec
Reduced shell lists constructed in    1.2 sec

Total number of grid points                  ...   113029
Total number of batches                      ...     1772
Average number of points per batch           ...       63
Average number of grid points per atom       ...     8074
Average number of shells per batch           ...    71.69 (68.27%)
Average number of basis functions per batch  ...   181.66 (70.14%)
Average number of large shells per batch     ...    56.79 (79.22%)
Average number of large basis fcns per batch ...   141.26 (77.76%)
Maximum spatial batch extension              ...  12.35, 11.74, 13.83 au
Average spatial batch extension              ...   0.16,  0.16,  0.17 au

Final grid set up in    2.1 sec
Final integration                            ... done (   0.9 sec)
Change in XC energy                          ...     0.000374421
Integrated number of electrons               ...    51.999997677
Previous integrated no of electrons          ...    52.000520198
Total Energy       :         -340.69844038 Eh           -9270.87589 eV
  Last Energy change         ...   -4.8144e-09  Tolerance :   1.0000e-08
  Last MAX-Density change    ...    3.0065e-06  Tolerance :   1.0000e-07
             **** THE GBW FILE WAS UPDATED (6760_+.gbw) ****
             **** DENSITY FILE WAS UPDATED (6760_+.scfp.tmp) ****
             **** ENERGY FILE WAS UPDATED (6760_+.en.tmp) ****
Total SCF time: 0 days 0 hours 0 min 36 sec 
           ************************************************************
           *              Shut down parallel processing               *
           ************************************************************

-------------------------   --------------------
FINAL SINGLE POINT ENERGY      -340.698440384657
-------------------------   --------------------



           ************************************************************
           *        Program running with 8 parallel MPI-processes     *
           *              working on a common directory               *
           ************************************************************
------------------------------------------------------------------------------
                         ORCA SCF GRADIENT CALCULATION
------------------------------------------------------------------------------

Gradient of the Kohn-Sham DFT energy:
Kohn-Sham wavefunction type      ... RKS
Hartree-Fock exchange scaling    ...    0.250
Number of operators              ...    1
Number of atoms                  ...   14
Basis set dimensions             ...  259
Integral neglect threshold       ... 2.5e-11
Integral primitive cutoff        ... 2.5e-12

Nuclear repulsion gradient       ... done
One Electron Gradient            ... done
Pre-screening matrix             ... done
Starting the two electron gradient:
Two electron gradient done
Exchange-correlation gradient    ... done

------------------
CARTESIAN GRADIENT
------------------

   1   O   :    0.000008564    0.000014521    0.000034409
   2   C   :    0.000007888   -0.000051002   -0.000039697
   3   C   :    0.000127006    0.000049748   -0.000049447
   4   N   :   -0.000077749   -0.000010470    0.000073992
   5   N   :   -0.000003100   -0.000030880    0.000011390
   6   C   :   -0.000042270    0.000030650   -0.000027481
   7   C   :   -0.000028147    0.000010815    0.000012383
   8   H   :   -0.000042843    0.000005540   -0.000024762
   9   H   :    0.000029756    0.000013811    0.000028933
  10   H   :   -0.000032209    0.000012514    0.000031724
  11   H   :   -0.000002384   -0.000019330   -0.000055509
  12   H   :    0.000017487   -0.000019573    0.000002637
  13   H   :    0.000023982   -0.000015930   -0.000006651
  14   H   :    0.000014018    0.000009586    0.000008081

Norm of the cartesian gradient     ...    0.000236645
RMS gradient                       ...    0.000036515
MAX gradient                       ...    0.000127006

-------
TIMINGS
-------

Total SCF gradient time            ...       25.563 sec

One electron gradient       ....       0.131 sec  (  0.5%)
Prescreening matrices       ....       0.459 sec  (  1.8%)
Two electron gradient       ....      21.920 sec  ( 85.7%)
XC gradient                 ....       2.357 sec  (  9.2%)
           ************************************************************
           *              Shut down parallel processing               *
           ************************************************************
------------------------------------------------------------------------------
                         ORCA GEOMETRY RELAXATION STEP
------------------------------------------------------------------------------

Reading the OPT-File                    .... done
Getting information on internals        .... done
Copying old internal coords+grads       .... done
Making the new internal coordinates     .... (new redundants).... done
Validating the new internal coordinates .... (new redundants).... done
Calculating the B-matrix                .... done
Calculating the G,G- and P matrices     .... done
Transforming gradient to internals      .... done
Projecting the internal gradient        .... done
Number of atoms                         ....  14
Number of internal coordinates          ....  50
Current Energy                          ....  -340.698440385 Eh
Current gradient norm                   ....     0.000236645 Eh/bohr
Maximum allowed component of the step   ....  0.300
Current trust radius                    ....  0.300
Updating the Hessian (BFGS)             .... done
Forming the augmented Hessian           .... done
Diagonalizing the augmented Hessian     .... done
Last element of RFO vector              ....  0.999922025
Lowest eigenvalues of augmented Hessian:
 -0.000001452  0.007225068  0.018162336  0.021016729  0.025198821
Length of the computed step             ....  0.012488703
The final length of the internal step   ....  0.012488703
Converting the step to cartesian space:
 Initial RMS(Int)=    0.0017661693
Transforming coordinates:
 Iter   0:  RMS(Cart)=    0.0039834999 RMS(Int)=    0.0017663686
 Iter   1:  RMS(Cart)=    0.0000079819 RMS(Int)=    0.0000047523
 Iter   2:  RMS(Cart)=    0.0000000305 RMS(Int)=    0.0000000163
done
Storing new coordinates                 .... done

                                .--------------------.
          ----------------------|Geometry convergence|---------------------
          Item                value                 Tolerance   Converged
          -----------------------------------------------------------------
          Energy change      -0.00000074            0.00000100      YES
          RMS gradient        0.00003821            0.00003000      NO
          MAX gradient        0.00014860            0.00010000      NO
          RMS step            0.00176617            0.00060000      NO
          MAX step            0.00405919            0.00100000      NO
          ....................................................
          Max(Bonds)      0.0002      Max(Angles)    0.07
          Max(Dihed)        0.23      Max(Improp)    0.00
          -----------------------------------------------------------------

The optimization has not yet converged - more geometry cycles are needed


    ---------------------------------------------------------------------------
                         Redundant Internal Coordinates
                            (Angstroem and degrees)

        Definition                    Value    dE/dq     Step     New-Value
    ----------------------------------------------------------------------------
     1. B(C   1,O   0)                1.4068  0.000039 -0.0002    1.4067   
     2. B(C   2,C   1)                1.4981  0.000026 -0.0001    1.4980   
     3. B(N   3,C   2)                1.2645 -0.000069  0.0001    1.2646   
     4. B(N   4,C   2)                1.4033  0.000017 -0.0000    1.4033   
     5. B(C   5,N   4)                1.3125  0.000024 -0.0000    1.3125   
     6. B(C   6,C   5)                1.3846 -0.000013  0.0000    1.3846   
     7. B(H   7,O   0)                0.9617  0.000009  0.0000    0.9617   
     8. B(H   8,C   1)                1.0951 -0.000009  0.0002    1.0953   
     9. B(H   9,C   1)                1.0927 -0.000013  0.0001    1.0928   
    10. B(H  10,N   3)                1.0215 -0.000006  0.0000    1.0215   
    11. B(H  11,C   5)                1.0888 -0.000005  0.0002    1.0889   
    12. B(H  12,C   6)                1.0860 -0.000003  0.0002    1.0861   
    13. B(H  13,C   6)                1.0865 -0.000005  0.0001    1.0866   
    14. A(C   1,O   0,H   7)          110.72  0.000038   -0.02    110.70   
    15. A(O   0,C   1,C   2)          104.66 -0.000077    0.05    104.71   
    16. A(C   2,C   1,H   9)          110.51  0.000058   -0.04    110.47   
    17. A(C   2,C   1,H   8)          109.74  0.000035   -0.02    109.72   
    18. A(H   8,C   1,H   9)          108.29 -0.000020    0.01    108.30   
    19. A(O   0,C   1,H   8)          113.20  0.000018   -0.00    113.20   
    20. A(O   0,C   1,H   9)          110.42 -0.000011    0.01    110.43   
    21. A(C   1,C   2,N   4)          111.42 -0.000091    0.04    111.46   
    22. A(N   3,C   2,N   4)          114.48 -0.000057    0.02    114.50   
    23. A(C   1,C   2,N   3)          134.01  0.000149   -0.07    133.95   
    24. A(C   2,N   3,H  10)          114.71  0.000085   -0.04    114.67   
    25. A(C   2,N   4,C   5)          119.19 -0.000009    0.01    119.20   
    26. A(C   6,C   5,H  11)          123.00  0.000023   -0.01    122.99   
    27. A(N   4,C   5,H  11)          122.35 -0.000023    0.01    122.36   
    28. A(N   4,C   5,C   6)          114.53  0.000000   -0.00    114.53   
    29. A(H  12,C   6,H  13)          119.13  0.000026   -0.02    119.12   
    30. A(C   5,C   6,H  13)          121.69 -0.000007    0.00    121.69   
    31. A(C   5,C   6,H  12)          119.15 -0.000019    0.01    119.17   
    32. D(H   9,C   1,O   0,H   7)   -121.86 -0.000012    0.19   -121.67   
    33. D(C   2,C   1,O   0,H   7)    119.20 -0.000031    0.20    119.41   
    34. D(H   8,C   1,O   0,H   7)     -0.26 -0.000033    0.20     -0.06   
    35. D(N   3,C   2,C   1,H   9)     28.61  0.000035   -0.22     28.39   
    36. D(N   3,C   2,C   1,H   8)    -90.75  0.000002   -0.19    -90.94   
    37. D(N   4,C   2,C   1,O   0)    -36.16  0.000006   -0.21    -36.38   
    38. D(N   4,C   2,C   1,H   9)   -155.04  0.000034   -0.23   -155.27   
    39. D(N   3,C   2,C   1,O   0)    147.48  0.000007   -0.20    147.28   
    40. D(N   4,C   2,C   1,H   8)     85.60  0.000001   -0.20     85.40   
    41. D(H  10,N   3,C   2,N   4)   -163.84  0.000033   -0.10   -163.94   
    42. D(H  10,N   3,C   2,C   1)     12.43  0.000032   -0.11     12.32   
    43. D(C   5,N   4,C   2,N   3)    -37.04 -0.000016    0.16    -36.88   
    44. D(C   5,N   4,C   2,C   1)    145.85 -0.000024    0.17    146.02   
    45. D(H  11,C   5,N   4,C   2)     -5.32  0.000006   -0.02     -5.34   
    46. D(C   6,C   5,N   4,C   2)    178.63  0.000013   -0.08    178.55   
    47. D(H  13,C   6,C   5,H  11)     -4.48 -0.000004    0.04     -4.44   
    48. D(H  13,C   6,C   5,N   4)    171.54 -0.000013    0.11    171.65   
    49. D(H  12,C   6,C   5,H  11)    177.43 -0.000013    0.05    177.48   
    50. D(H  12,C   6,C   5,N   4)     -6.55 -0.000022    0.12     -6.43   
    ----------------------------------------------------------------------------

         *************************************************************
         *                GEOMETRY OPTIMIZATION CYCLE   3            *
         *************************************************************
---------------------------------
CARTESIAN COORDINATES (ANGSTROEM)
---------------------------------
  O      0.004712    0.001286    2.111940
  C      1.084761   -0.590171    1.431912
  C      0.868414   -0.235064   -0.007221
  N      1.642627    0.003194   -0.978321
  N     -0.495538   -0.237433   -0.337278
  C     -0.941638    0.623302   -1.221983
  C     -2.294167    0.515297   -1.497753
  H     -0.521462   -0.667025    2.560698
  H      1.119894   -1.679348    1.542549
  H      2.031926   -0.178274    1.788986
  H      2.620428   -0.242723   -0.814320
  H     -0.309249    1.399265   -1.650559
  H     -2.857820   -0.307916   -1.068436
  H     -2.812832    1.249941   -2.107576

----------------------------
CARTESIAN COORDINATES (A.U.)
----------------------------
  NO LB      ZA    FRAG    MASS        X           Y           Z
   0 O     8.0000    0    15.999          0.008904528641129          0.002430051705520          3.990987491567516
   1 C     6.0000    0    12.011          2.049902005957624         -1.115262391450606          2.705922268123762
   2 C     6.0000    0    12.011          1.641064327225118         -0.444207398932863         -0.013644787774702
   3 N     7.0000    0    14.007          3.104115866786090          0.006036479991533         -1.848759278833633
   4 N     7.0000    0    14.007         -0.936431240864544         -0.448684142398482         -0.637363613791620
   5 C     6.0000    0    12.011         -1.779437294889844          1.177869878470875         -2.309213713127928
   6 C     6.0000    0    12.011         -4.335346825308468          0.973770668205676         -2.830342385255359
   7 H     1.0000    0     1.008         -0.985419503393018         -1.260494338561062          4.839018874641330
   8 H     1.0000    0     1.008          2.116293210577763         -3.173507819554177          2.914995377823843
   9 H     1.0000    0     1.008          3.839784567370957         -0.336889882213904          3.380693157489678
  10 H     1.0000    0     1.008          4.951891578095063         -0.458679792140554         -1.538841592426641
  11 H     1.0000    0     1.008         -0.584395313050609          2.644226844148975         -3.119103997112897
  12 H     1.0000    0     1.008         -5.400497888198729         -0.581877513463516         -2.019051364878292
  13 H     1.0000    0     1.008         -5.315481701577842          2.362046160919733         -3.982742184698903

--------------------------------
INTERNAL COORDINATES (ANGSTROEM)
--------------------------------
 O      0   0   0   0.000000     0.000     0.000
 C      1   0   0   1.406686     0.000     0.000
 C      2   1   0   1.498002   104.706     0.000
 N      3   2   1   1.264599   133.946   147.278
 N      3   2   1   1.403321   111.465   323.623
 C      5   3   2   1.312468   119.196   146.015
 C      6   5   3   1.384575   114.527   178.546
 H      1   2   3   0.961708   110.700   119.407
 H      2   1   3   1.095345   113.197   240.530
 H      2   1   3   1.092832   110.428   118.920
 H      4   3   2   1.021502   114.670    12.323
 H      6   5   3   1.088904   122.361   354.665
 H      7   6   5   1.086139   119.166   353.568
 H      7   6   5   1.086554   121.691   171.647

---------------------------
INTERNAL COORDINATES (A.U.)
---------------------------
 O      0   0   0   0.000000     0.000     0.000
 C      1   0   0   2.658251     0.000     0.000
 C      2   1   0   2.830814   104.706     0.000
 N      3   2   1   2.389746   133.946   147.278
 N      3   2   1   2.651892   111.465   323.623
 C      5   3   2   2.480206   119.196   146.015
 C      6   5   3   2.616468   114.527   178.546
 H      1   2   3   1.817365   110.700   119.407
 H      2   1   3   2.069902   113.197   240.530
 H      2   1   3   2.065154   110.428   118.920
 H      4   3   2   1.930359   114.670    12.323
 H      6   5   3   2.057729   122.361   354.665
 H      7   6   5   2.052506   119.166   353.568
 H      7   6   5   2.053290   121.691   171.647



           ************************************************************
           *        Program running with 8 parallel MPI-processes     *
           *              working on a common directory               *
           ************************************************************
           ************************************************************
           *              Shut down parallel processing               *
           ************************************************************


           ************************************************************
           *        Program running with 8 parallel MPI-processes     *
           *              working on a common directory               *
           ************************************************************

Diagonalization of the overlap matrix:
Smallest eigenvalue                        ... 2.322e-04
Time for diagonalization                   ...    0.189 sec
Threshold for overlap eigenvalues          ... 1.000e-08
Number of eigenvalues below threshold      ... 0
Time for construction of square roots      ...    0.017 sec
Total time needed                          ...    0.207 sec

-------------------
DFT GRID GENERATION
-------------------

General Integration Accuracy     IntAcc      ...  4.340
Radial Grid Type                 RadialGrid  ... Gauss-Chebyshev
Angular Grid (max. acc.)         AngularGrid ... Lebedev-194
Angular grid pruning method      GridPruning ... 3 (G Style)
Weight generation scheme         WeightScheme... Becke
Basis function cutoff            BFCut       ...    1.0000e-11
Integration weight cutoff        WCut        ...    1.0000e-14
Grids for H and He will be reduced by one unit

# of grid points (after initial pruning)     ...  33832 (   0.0 sec)
# of grid points (after weights+screening)   ...  31726 (   0.2 sec)
nearest neighbour list constructed           ...    0.0 sec
Grid point re-assignment to atoms done       ...    0.0 sec
Grid point division into batches done        ...    0.1 sec
Reduced shell lists constructed in    0.1 sec

Total number of grid points                  ...    31726
Total number of batches                      ...      501
Average number of points per batch           ...       63
Average number of grid points per atom       ...     2266
Average number of shells per batch           ...    74.05 (70.52%)
Average number of basis functions per batch  ...   188.30 (72.70%)
Average number of large shells per batch     ...    58.95 (79.62%)
Average number of large basis fcns per batch ...   147.27 (78.21%)
Maximum spatial batch extension              ...  10.49, 13.70, 15.57 au
Average spatial batch extension              ...   0.24,  0.26,  0.25 au

Time for grid setup =    0.657 sec

--------------
SCF ITERATIONS
--------------
ITER       Energy         Delta-E        Max-DP      RMS-DP      [F,P]     Damp
               ***  Starting incremental Fock matrix formation  ***
                      *** Initiating the SOSCF procedure ***
                      *** Re-Reading the Fockian *** 
                      *** Removing any level shift *** 
ITER      Energy       Delta-E        Grad      Rot      Max-DP    RMS-DP
  0   -340.69880188 -340.6988018828  0.000262  0.000262  0.000861  0.000019
               *** Restarting incremental Fock matrix formation ***
  1   -340.69881382  -0.0000119349  0.000130  0.000864  0.000344  0.000010
  2   -340.69881551  -0.0000016962  0.000055  0.000513  0.000400  0.000008
  3   -340.69881534   0.0000001772  0.000080  0.000208  0.000230  0.000004
  4   -340.69881572  -0.0000003875  0.000011  0.000076  0.000019  0.000001
  5   -340.69881573  -0.0000000009  0.000015  0.000052  0.000015  0.000000
  6   -340.69881573  -0.0000000028  0.000003  0.000008  0.000010  0.000000
  7   -340.69881573  -0.0000000003  0.000003  0.000005  0.000004  0.000000
                  ***Gradient check signals convergence***
              ***Rediagonalizing the Fockian in SOSCF/NRSCF***

               *****************************************************
               *                     SUCCESS                       *
               *           SCF CONVERGED AFTER   8 CYCLES          *
               *****************************************************

Setting up the final grid:

General Integration Accuracy     IntAcc      ...  5.010
Radial Grid Type                 RadialGrid  ... Gauss-Chebyshev
Angular Grid (max. acc.)         AngularGrid ... Lebedev-434
Angular grid pruning method      GridPruning ... 3 (G Style)
Weight generation scheme         WeightScheme... Becke
Basis function cutoff            BFCut       ...    1.0000e-11
Integration weight cutoff        WCut        ...    1.0000e-14
Grids for H and He will be reduced by one unit

# of grid points (after initial pruning)     ... 121658 (   0.0 sec)
# of grid points (after weights+screening)   ... 113037 (   1.1 sec)
nearest neighbour list constructed           ...    0.0 sec
Grid point re-assignment to atoms done       ...    0.0 sec
Grid point division into batches done        ...    1.0 sec
Reduced shell lists constructed in    1.2 sec

Total number of grid points                  ...   113037
Total number of batches                      ...     1772
Average number of points per batch           ...       63
Average number of grid points per atom       ...     8074
Average number of shells per batch           ...    71.62 (68.21%)
Average number of basis functions per batch  ...   181.54 (70.09%)
Average number of large shells per batch     ...    56.82 (79.33%)
Average number of large basis fcns per batch ...   141.36 (77.87%)
Maximum spatial batch extension              ...  12.35, 11.74, 13.83 au
Average spatial batch extension              ...   0.17,  0.16,  0.17 au

Final grid set up in    2.8 sec
Final integration                            ... done (   0.7 sec)
Change in XC energy                          ...     0.000374396
Integrated number of electrons               ...    51.999997565
Previous integrated no of electrons          ...    52.000519937
Total Energy       :         -340.69844133 Eh           -9270.87591 eV
  Last Energy change         ...   -1.3011e-10  Tolerance :   1.0000e-08
  Last MAX-Density change    ...    2.6867e-06  Tolerance :   1.0000e-07
             **** THE GBW FILE WAS UPDATED (6760_+.gbw) ****
             **** DENSITY FILE WAS UPDATED (6760_+.scfp.tmp) ****
             **** ENERGY FILE WAS UPDATED (6760_+.en.tmp) ****
Total SCF time: 0 days 0 hours 0 min 43 sec 
           ************************************************************
           *              Shut down parallel processing               *
           ************************************************************

-------------------------   --------------------
FINAL SINGLE POINT ENERGY      -340.698441332160
-------------------------   --------------------



           ************************************************************
           *        Program running with 8 parallel MPI-processes     *
           *              working on a common directory               *
           ************************************************************
------------------------------------------------------------------------------
                         ORCA SCF GRADIENT CALCULATION
------------------------------------------------------------------------------

Gradient of the Kohn-Sham DFT energy:
Kohn-Sham wavefunction type      ... RKS
Hartree-Fock exchange scaling    ...    0.250
Number of operators              ...    1
Number of atoms                  ...   14
Basis set dimensions             ...  259
Integral neglect threshold       ... 2.5e-11
Integral primitive cutoff        ... 2.5e-12

Nuclear repulsion gradient       ... done
One Electron Gradient            ... done
Pre-screening matrix             ... done
Starting the two electron gradient:
Two electron gradient done
Exchange-correlation gradient    ... done

------------------
CARTESIAN GRADIENT
------------------

   1   O   :    0.000095447    0.000073033    0.000047702
   2   C   :   -0.000138061    0.000020334   -0.000071962
   3   C   :    0.000229101    0.000012152   -0.000058739
   4   N   :   -0.000131074   -0.000041089    0.000126334
   5   N   :   -0.000024489    0.000007666   -0.000007030
   6   C   :   -0.000162278   -0.000014421    0.000014620
   7   C   :    0.000148757    0.000023142   -0.000042856
   8   H   :   -0.000037046   -0.000047985   -0.000030199
   9   H   :    0.000022453   -0.000115003    0.000040492
  10   H   :    0.000006163    0.000065938    0.000008546
  11   H   :    0.000005627    0.000004957   -0.000029339
  12   H   :    0.000059954    0.000056728   -0.000044820
  13   H   :   -0.000060886   -0.000075841    0.000045660
  14   H   :   -0.000013667    0.000030389    0.000001592

Norm of the cartesian gradient     ...    0.000480688
RMS gradient                       ...    0.000074172
MAX gradient                       ...    0.000229101

-------
TIMINGS
-------

Total SCF gradient time            ...       25.800 sec

One electron gradient       ....       0.109 sec  (  0.4%)
Prescreening matrices       ....       0.275 sec  (  1.1%)
Two electron gradient       ....      20.961 sec  ( 81.2%)
XC gradient                 ....       2.315 sec  (  9.0%)
           ************************************************************
           *              Shut down parallel processing               *
           ************************************************************
------------------------------------------------------------------------------
                         ORCA GEOMETRY RELAXATION STEP
------------------------------------------------------------------------------

Reading the OPT-File                    .... done
Getting information on internals        .... done
Copying old internal coords+grads       .... done
Making the new internal coordinates     .... (new redundants).... done
Validating the new internal coordinates .... (new redundants).... done
Calculating the B-matrix                .... done
Calculating the G,G- and P matrices     .... done
Transforming gradient to internals      .... done
Projecting the internal gradient        .... done
Number of atoms                         ....  14
Number of internal coordinates          ....  50
Current Energy                          ....  -340.698441332 Eh
Current gradient norm                   ....     0.000480688 Eh/bohr
Maximum allowed component of the step   ....  0.300
Current trust radius                    ....  0.300
Updating the Hessian (BFGS)             .... done
Forming the augmented Hessian           .... done
Diagonalizing the augmented Hessian     .... done
Last element of RFO vector              ....  0.999938960
Lowest eigenvalues of augmented Hessian:
 -0.000000762  0.004303845  0.017210921  0.021236650  0.025200576
Length of the computed step             ....  0.011049497
The final length of the internal step   ....  0.011049497
Converting the step to cartesian space:
 Initial RMS(Int)=    0.0015626349
Transforming coordinates:
 Iter   0:  RMS(Cart)=    0.0030966320 RMS(Int)=    0.0015626818
 Iter   1:  RMS(Cart)=    0.0000048774 RMS(Int)=    0.0000030444
 Iter   2:  RMS(Cart)=    0.0000000152 RMS(Int)=    0.0000000099
done
Storing new coordinates                 .... done

                                .--------------------.
          ----------------------|Geometry convergence|---------------------
          Item                value                 Tolerance   Converged
          -----------------------------------------------------------------
          Energy change      -0.00000095            0.00000100      YES
          RMS gradient        0.00004536            0.00003000      NO
          MAX gradient        0.00015816            0.00010000      NO
          RMS step            0.00156263            0.00060000      NO
          MAX step            0.00412897            0.00100000      NO
          ....................................................
          Max(Bonds)      0.0002      Max(Angles)    0.06
          Max(Dihed)        0.24      Max(Improp)    0.00
          -----------------------------------------------------------------

The optimization has not yet converged - more geometry cycles are needed


    ---------------------------------------------------------------------------
                         Redundant Internal Coordinates
                            (Angstroem and degrees)

        Definition                    Value    dE/dq     Step     New-Value
    ----------------------------------------------------------------------------
     1. B(C   1,O   0)                1.4067 -0.000026 -0.0001    1.4066   
     2. B(C   2,C   1)                1.4980 -0.000012 -0.0001    1.4979   
     3. B(N   3,C   2)                1.2646 -0.000158  0.0002    1.2648   
     4. B(N   4,C   2)                1.4033  0.000058 -0.0001    1.4032   
     5. B(C   5,N   4)                1.3125  0.000041 -0.0001    1.3124   
     6. B(C   6,C   5)                1.3846 -0.000072  0.0001    1.3846   
     7. B(H   7,O   0)                0.9617  0.000040 -0.0000    0.9617   
     8. B(H   8,C   1)                1.0953  0.000120 -0.0000    1.0953   
     9. B(H   9,C   1)                1.0928  0.000033  0.0000    1.0929   
    10. B(H  10,N   3)                1.0215 -0.000000  0.0000    1.0215   
    11. B(H  11,C   5)                1.0889  0.000093 -0.0000    1.0889   
    12. B(H  12,C   6)                1.0861  0.000107 -0.0000    1.0861   
    13. B(H  13,C   6)                1.0866  0.000026  0.0000    1.0866   
    14. A(C   1,O   0,H   7)          110.70 -0.000041   -0.01    110.69   
    15. A(O   0,C   1,C   2)          104.71  0.000033    0.03    104.73   
    16. A(C   2,C   1,H   9)          110.47 -0.000020   -0.02    110.45   
    17. A(C   2,C   1,H   8)          109.72  0.000020   -0.02    109.69   
    18. A(H   8,C   1,H   9)          108.30  0.000012    0.00    108.30   
    19. A(O   0,C   1,H   8)          113.20 -0.000003   -0.01    113.19   
    20. A(O   0,C   1,H   9)          110.43 -0.000042    0.02    110.45   
    21. A(C   1,C   2,N   4)          111.46 -0.000018    0.03    111.50   
    22. A(N   3,C   2,N   4)          114.50 -0.000062    0.02    114.53   
    23. A(C   1,C   2,N   3)          133.95  0.000080   -0.06    133.89   
    24. A(C   2,N   3,H  10)          114.67  0.000057   -0.04    114.63   
    25. A(C   2,N   4,C   5)          119.20  0.000049   -0.00    119.19   
    26. A(C   6,C   5,H  11)          122.99  0.000011   -0.01    122.98   
    27. A(N   4,C   5,H  11)          122.36  0.000002    0.01    122.37   
    28. A(N   4,C   5,C   6)          114.53 -0.000012    0.00    114.53   
    29. A(H  12,C   6,H  13)          119.12 -0.000001   -0.01    119.11   
    30. A(C   5,C   6,H  13)          121.69 -0.000009    0.00    121.70   
    31. A(C   5,C   6,H  12)          119.17  0.000009    0.01    119.17   
    32. D(H   9,C   1,O   0,H   7)   -121.67 -0.000032    0.22   -121.45   
    33. D(C   2,C   1,O   0,H   7)    119.41 -0.000006    0.22    119.63   
    34. D(H   8,C   1,O   0,H   7)     -0.06 -0.000049    0.24      0.17   
    35. D(N   3,C   2,C   1,H   9)     28.39  0.000023   -0.18     28.20   
    36. D(N   3,C   2,C   1,H   8)    -90.94  0.000008   -0.16    -91.10   
    37. D(N   4,C   2,C   1,O   0)    -36.38 -0.000018   -0.17    -36.54   
    38. D(N   4,C   2,C   1,H   9)   -155.27  0.000024   -0.20   -155.47   
    39. D(N   3,C   2,C   1,O   0)    147.28 -0.000019   -0.15    147.13   
    40. D(N   4,C   2,C   1,H   8)     85.40  0.000009   -0.17     85.23   
    41. D(H  10,N   3,C   2,N   4)   -163.94  0.000002   -0.07   -164.01   
    42. D(H  10,N   3,C   2,C   1)     12.32  0.000005   -0.08     12.24   
    43. D(C   5,N   4,C   2,N   3)    -36.88  0.000001    0.10    -36.78   
    44. D(C   5,N   4,C   2,C   1)    146.02 -0.000006    0.12    146.13   
    45. D(H  11,C   5,N   4,C   2)     -5.34 -0.000005   -0.00     -5.34   
    46. D(C   6,C   5,N   4,C   2)    178.55 -0.000019   -0.02    178.52   
    47. D(H  13,C   6,C   5,H  11)     -4.44 -0.000025    0.10     -4.34   
    48. D(H  13,C   6,C   5,N   4)    171.65 -0.000011    0.12    171.77   
    49. D(H  12,C   6,C   5,H  11)    177.48 -0.000001    0.01    177.49   
    50. D(H  12,C   6,C   5,N   4)     -6.43  0.000012    0.03     -6.40   
    ----------------------------------------------------------------------------

         *************************************************************
         *                GEOMETRY OPTIMIZATION CYCLE   4            *
         *************************************************************
---------------------------------
CARTESIAN COORDINATES (ANGSTROEM)
---------------------------------
  O      0.006870    0.001840    2.113801
  C      1.084539   -0.591285    1.431609
  C      0.867501   -0.234429   -0.006932
  N      1.642353    0.005045   -0.977446
  N     -0.496311   -0.236789   -0.337200
  C     -0.942077    0.623430   -1.222494
  C     -2.294534    0.515156   -1.498843
  H     -0.518110   -0.665513    2.565327
  H      1.117100   -1.680667    1.540806
  H      2.033397   -0.182223    1.787529
  H      2.620142   -0.240125   -0.812111
  H     -0.309637    1.399073   -1.651513
  H     -2.858519   -0.307540   -1.069024
  H     -2.812654    1.248357   -2.110870

----------------------------
CARTESIAN COORDINATES (A.U.)
----------------------------
  NO LB      ZA    FRAG    MASS        X           Y           Z
   0 O     8.0000    0    15.999          0.012982872645826          0.003477698467848          3.994504730989848
   1 C     6.0000    0    12.011          2.049482268392532         -1.117366567030779          2.705348908954638
   2 C     6.0000    0    12.011          1.639340082925446         -0.443007181530535         -0.013099496301029
   3 N     7.0000    0    14.007          3.103596593772814          0.009532781195130         -1.847105987672162
   4 N     7.0000    0    14.007         -0.937890936247417         -0.447466672982979         -0.637215077808802
   5 C     6.0000    0    12.011         -1.780268327738192          1.178111365813821         -2.310178757592987
   6 C     6.0000    0    12.011         -4.336041766601349          0.973502828537210         -2.832402675184546
   7 H     1.0000    0     1.008         -0.979086176063095         -1.257636706483430          4.847765391755414
   8 H     1.0000    0     1.008          2.111012146447803         -3.176000938512924          2.911701141407686
   9 H     1.0000    0     1.008          3.842562925293450         -0.344351186885037          3.377939932052425
  10 H     1.0000    0     1.008          4.951351415404605         -0.453771431998816         -1.534667415614109
  11 H     1.0000    0     1.008         -0.585129645932984          2.643864874488339         -3.120907788095232
  12 H     1.0000    0     1.008         -5.401818929112613         -0.581165833955290         -2.020162763277284
  13 H     1.0000    0     1.008         -5.315146205816135          2.359053775604591         -3.988965891867708

--------------------------------
INTERNAL COORDINATES (ANGSTROEM)
--------------------------------
 O      0   0   0   0.000000     0.000     0.000
 C      1   0   0   1.406611     0.000     0.000
 C      2   1   0   1.497949   104.732     0.000
 N      3   2   1   1.264769   133.888   147.127
 N      3   2   1   1.403234   111.497   323.457
 C      5   3   2   1.312414   119.194   146.131
 C      6   5   3   1.384642   114.528   178.522
 H      1   2   3   0.961686   110.691   119.627
 H      2   1   3   1.095326   113.192   240.546
 H      2   1   3   1.092859   110.451   118.922
 H      4   3   2   1.021527   114.631    12.241
 H      6   5   3   1.088880   122.371   354.663
 H      7   6   5   1.086117   119.173   353.600
 H      7   6   5   1.086559   121.696   171.769

---------------------------
INTERNAL COORDINATES (A.U.)
---------------------------
 O      0   0   0   0.000000     0.000     0.000
 C      1   0   0   2.658109     0.000     0.000
 C      2   1   0   2.830714   104.732     0.000
 N      3   2   1   2.390067   133.888   147.127
 N      3   2   1   2.651728   111.497   323.457
 C      5   3   2   2.480103   119.194   146.131
 C      6   5   3   2.616593   114.528   178.522
 H      1   2   3   1.817323   110.691   119.627
 H      2   1   3   2.069865   113.192   240.546
 H      2   1   3   2.065205   110.451   118.922
 H      4   3   2   1.930406   114.631    12.241
 H      6   5   3   2.057686   122.371   354.663
 H      7   6   5   2.052464   119.173   353.600
 H      7   6   5   2.053299   121.696   171.769



           ************************************************************
           *        Program running with 8 parallel MPI-processes     *
           *              working on a common directory               *
           ************************************************************
           ************************************************************
           *              Shut down parallel processing               *
           ************************************************************


           ************************************************************
           *        Program running with 8 parallel MPI-processes     *
           *              working on a common directory               *
           ************************************************************

Diagonalization of the overlap matrix:
Smallest eigenvalue                        ... 2.323e-04
Time for diagonalization                   ...    0.164 sec
Threshold for overlap eigenvalues          ... 1.000e-08
Number of eigenvalues below threshold      ... 0
Time for construction of square roots      ...    0.017 sec
Total time needed                          ...    0.182 sec

-------------------
DFT GRID GENERATION
-------------------

General Integration Accuracy     IntAcc      ...  4.340
Radial Grid Type                 RadialGrid  ... Gauss-Chebyshev
Angular Grid (max. acc.)         AngularGrid ... Lebedev-194
Angular grid pruning method      GridPruning ... 3 (G Style)
[...]
      5      -0.173311  -0.270451   0.196058  -0.049188  -0.014550   0.074988
      6      -0.268223   0.000444  -0.039394   0.014355  -0.033173  -0.032476
      7      -0.094412  -0.115408   0.037451   0.045096  -0.004166  -0.036651
      8       0.263666   0.339353  -0.025467  -0.074397   0.023634   0.057266
      9      -0.043766  -0.002882  -0.022482   0.006299   0.034938   0.063112
     10       0.009469   0.019707   0.038207   0.010318   0.000808  -0.035738
     11      -0.004872  -0.019351  -0.002979   0.016436  -0.005277   0.021829
     12       0.381356  -0.036635   0.174304  -0.024508  -0.066099  -0.147694
     13      -0.021441   0.097460   0.064259  -0.069192   0.132894   0.173823
     14      -0.024625   0.022663  -0.102119   0.106497  -0.124632  -0.168627
     15      -0.046177  -0.028640  -0.104303   0.031556   0.043319   0.223448
     16       0.110147  -0.064390  -0.139215   0.095385  -0.135652   0.149657
     17      -0.246080   0.130215   0.072978  -0.026554   0.063726  -0.114799
     18       0.081919  -0.081396  -0.040568   0.013484   0.067615  -0.158486
     19      -0.068310   0.034247   0.063382  -0.073368  -0.058390  -0.175952
     20       0.226110  -0.161966  -0.000074  -0.021294  -0.023172   0.172582
     21      -0.104108   0.050249  -0.019779  -0.050731  -0.004470   0.056058
     22       0.037070   0.050514   0.000463   0.067841  -0.008712  -0.087181
     23      -0.053356   0.055661  -0.060555  -0.000784   0.001173   0.012404
     24      -0.079180   0.105589  -0.101188  -0.053216  -0.026588  -0.033958
     25      -0.020993  -0.015905   0.118586   0.153937   0.046897   0.143768
     26       0.064204   0.085898  -0.043913   0.128696  -0.006786  -0.111381
     27      -0.118469   0.270630   0.231421   0.314089   0.045002   0.084398
     28       0.080501  -0.492596  -0.755044  -0.852920  -0.139009  -0.268968
     29      -0.060138  -0.039265  -0.161343  -0.010029   0.012041   0.043691
     30      -0.005136   0.016930  -0.013139  -0.001320   0.011565   0.079642
     31       0.093209   0.031639   0.086061   0.024586  -0.023978   0.087644
     32      -0.100013   0.030113  -0.145412  -0.001867   0.069928  -0.302347
     33      -0.147830   0.099536  -0.057041   0.017233  -0.026020  -0.121739
     34       0.221686  -0.058319  -0.063514   0.057687   0.013723   0.231654
     35       0.061602   0.029172   0.042219  -0.009126   0.003189  -0.111637
     36      -0.004764  -0.030292  -0.019745  -0.003579   0.004923   0.054029
     37      -0.169131   0.075155  -0.004222  -0.009329   0.048397  -0.248129
     38      -0.073429   0.004542  -0.050992   0.052384   0.207204  -0.154197
     39      -0.181772   0.136533   0.063499  -0.068888  -0.216274   0.115630
     40       0.111879  -0.182955  -0.139549   0.072329   0.351588  -0.315492
     41       0.539318  -0.538826  -0.335606   0.241061   0.824237  -0.457022
                 24         25         26         27         28         29    
      0       0.081152   0.023445  -0.026096   0.132106   0.031378  -0.026477
      1      -0.004719   0.000943  -0.016006  -0.014534  -0.003308  -0.033227
      2      -0.010459  -0.029125  -0.006078   0.095137  -0.007870   0.078465
      3      -0.002993   0.000781   0.042558   0.107830   0.020034  -0.014413
      4      -0.051629  -0.016280   0.072994  -0.039044  -0.004655  -0.006258
      5       0.163586   0.041643  -0.175000   0.033377   0.000593   0.018570
      6      -0.000258   0.012162   0.040605   0.073323   0.008349   0.003408
      7      -0.038929  -0.001883   0.054787  -0.024145  -0.009096  -0.020521
      8       0.123278   0.017032  -0.155843   0.032861   0.005359   0.018130
      9      -0.047297  -0.011506  -0.228358  -0.399885   0.076403  -0.061924
     10       0.025518   0.021548  -0.070477  -0.004621  -0.044615   0.047914
     11      -0.040926  -0.041680   0.295360   0.130639   0.083934  -0.173626
     12       0.025021   0.046388   0.166339  -0.045739  -0.016235   0.010560
     13      -0.041264   0.002331  -0.009920   0.071378   0.007379  -0.028054
     14       0.076317   0.001121  -0.053566  -0.086026   0.000669   0.012453
     15       0.068759   0.052448   0.257778  -0.099206  -0.140348   0.075722
     16       0.070758   0.028631  -0.130657   0.095783   0.028024  -0.040289
     17      -0.044448  -0.005017   0.083544  -0.147173   0.006473   0.037578
     18      -0.144385  -0.122056  -0.208585   0.232559   0.027289   0.066167
     19      -0.020901  -0.023281   0.053277  -0.061225  -0.014203   0.019953
     20      -0.233434  -0.029432   0.006164  -0.104684  -0.032082   0.007816
     21       0.060341   0.016124  -0.016421   0.187293   0.024017   0.010305
     22      -0.037452   0.007722   0.045314  -0.215840  -0.007031  -0.097401
     23      -0.014182  -0.023066   0.015006  -0.009202  -0.003535   0.028857
     24       0.053900   0.040097  -0.014541  -0.032128   0.039389  -0.317141
     25      -0.074701  -0.066699  -0.091815   0.413513  -0.021932   0.489944
     26      -0.123671  -0.031811   0.331023  -0.313505  -0.099188   0.501880
     27      -0.029187   0.019323  -0.051819   0.117276   0.020050  -0.033465
     28       0.145987  -0.004178   0.106886  -0.099427   0.004775   0.053465
     29      -0.101312  -0.066780   0.055590   0.039527  -0.055470   0.072406
     30       0.056550  -0.127570  -0.097024  -0.238059   0.064809  -0.040817
     31       0.251001  -0.337273   0.129495  -0.126071  -0.019881   0.012940
     32      -0.643378   0.888995  -0.310667   0.327715   0.007135  -0.038250
     33      -0.014288  -0.059550  -0.100506   0.112088  -0.495943  -0.200944
     34       0.068351   0.109998   0.307029  -0.178645   0.518433   0.320969
     35      -0.069172  -0.097517  -0.430766   0.017069  -0.642683  -0.388017
     36      -0.020673  -0.039603  -0.073467   0.165330  -0.037608   0.031088
     37       0.113267   0.010350   0.050230  -0.019359   0.065269   0.025569
     38       0.138639   0.008853  -0.088147   0.047689  -0.041360  -0.078724
     39      -0.145276  -0.030448   0.052678   0.036171   0.060132   0.125397
     40       0.312247   0.085989   0.223540  -0.129959   0.029453   0.007327
     41       0.380268   0.058530   0.037778  -0.027472   0.018608  -0.082127
                 30         31         32         33         34         35    
      0      -0.014165   0.029781  -0.010340   0.099501  -0.007671   0.010163
      1       0.017346  -0.056114   0.019290  -0.041731   0.006805  -0.046671
      2      -0.004006   0.002557   0.112750  -0.264943   0.009687   0.000791
      3      -0.008779   0.008481   0.056910  -0.011595  -0.001525   0.000125
      4      -0.000686   0.033403  -0.021237   0.008985  -0.007579   0.002677
      5      -0.021259  -0.024582  -0.004495   0.044269  -0.002674   0.013859
      6      -0.001109   0.017477   0.049381  -0.042028  -0.003373   0.004213
      7      -0.007156  -0.012944  -0.007507   0.014565  -0.006118   0.004352
      8       0.001953  -0.009389  -0.037113   0.051727  -0.002008   0.004103
      9       0.004297   0.087960   0.020594  -0.035088   0.010204   0.000737
     10      -0.003985  -0.045498  -0.005023   0.016762  -0.010394   0.007977
     11      -0.019405   0.069059  -0.036208   0.042090   0.005529  -0.003619
     12       0.020172   0.027696   0.043164  -0.065150  -0.000685   0.008669
     13      -0.026844   0.006620   0.016573   0.016787  -0.007160   0.014650
     14       0.024095  -0.022624  -0.067267   0.042049  -0.001464  -0.007933
     15       0.030885  -0.073985  -0.090384   0.012492   0.021658  -0.026130
     16      -0.030175   0.030214   0.021999   0.016008  -0.001820   0.005000
     17       0.029367  -0.042823  -0.060352   0.033844  -0.004924  -0.007183
     18      -0.017019  -0.096637  -0.067526   0.047538  -0.006461  -0.001472
     19       0.014705   0.014381   0.005961  -0.019615   0.082887  -0.014236
     20       0.010199  -0.029873  -0.038808   0.034525  -0.022148   0.013041
     21      -0.014901   0.052290   0.003024   0.039692   0.013210  -0.153279
     22       0.017889  -0.100823  -0.018381   0.073485  -0.044879   0.318937
     23       0.014810  -0.020219   0.076985  -0.177418  -0.024071   0.264820
     24      -0.014638  -0.365414   0.078606  -0.138431  -0.000687  -0.003574
     25       0.384157   0.779130  -0.341792  -0.005147  -0.019128   0.042800
     26      -0.732570   0.241259   0.349082   0.497397   0.016066  -0.010479
     27      -0.090460  -0.002079  -0.117930  -0.177653  -0.004474   0.009738
     28      -0.042373   0.123410  -0.133136  -0.054370  -0.018417   0.005895
     29       0.540354  -0.064041   0.806105   0.738350   0.022330  -0.000968
     30      -0.001734   0.050110   0.026544  -0.035283  -0.000633   0.012061
     31      -0.000584  -0.034863  -0.014448   0.022125  -0.015885   0.011349
     32      -0.006686   0.046708  -0.018431   0.014549   0.023073  -0.010390
     33      -0.030859   0.048414  -0.017228  -0.004875  -0.018400   0.663078
     34       0.042686  -0.190772  -0.056326   0.022820   0.085850   0.152938
     35      -0.049297   0.239510   0.049486  -0.005084  -0.106334  -0.324688
     36      -0.018749  -0.042371  -0.051871   0.051431   0.520675  -0.312238
     37       0.009027   0.016315   0.030690  -0.029066  -0.218816   0.126044
     38      -0.010170   0.065426   0.015182   0.020529   0.211475  -0.125632
     39       0.008752  -0.096989  -0.027929   0.002382  -0.642929  -0.230601
     40       0.020075   0.063316   0.076077  -0.071323  -0.435566  -0.205317
     41       0.000552   0.076534   0.047255  -0.010846   0.025586   0.071474
                 36         37         38         39         40         41    
      0       0.001640   0.017303   0.004173  -0.005419   0.002652  -0.014049
      1       0.030268  -0.043124  -0.000352   0.001141  -0.000058  -0.040736
      2       0.007290  -0.003289   0.004205  -0.002104   0.001100   0.043057
      3       0.006226   0.008427   0.004976  -0.003871   0.002367  -0.000461
      4      -0.001500  -0.003724  -0.001246   0.001564   0.000149   0.000001
      5       0.001909   0.001484  -0.000022  -0.003076   0.001079   0.004966
      6       0.003335   0.008973   0.004082  -0.001299   0.002533   0.003545
      7      -0.001979  -0.001115  -0.004326  -0.000097  -0.000515  -0.003061
      8       0.004440  -0.001850   0.002460  -0.002116   0.002043   0.004959
      9       0.005717  -0.011987   0.046104  -0.003503   0.000612  -0.002928
     10      -0.003882   0.001778  -0.011410   0.000618  -0.000005  -0.000688
     11       0.007478  -0.003737   0.003259  -0.003683   0.000234  -0.001546
     12      -0.002710   0.004191   0.001736   0.003079   0.002150   0.003632
     13      -0.004031   0.003926   0.000069  -0.000540  -0.001932   0.002457
     14       0.007705  -0.011586  -0.001485  -0.001058   0.004274  -0.003823
     15       0.038898   0.032277   0.001645  -0.015178  -0.009040  -0.003110
     16      -0.003152   0.011023   0.000994  -0.002263  -0.008592   0.002573
     17       0.007346  -0.006727  -0.003572   0.004360   0.008960  -0.000990
     18       0.026894   0.022793   0.005977  -0.037040   0.020860   0.000032
     19       0.011477   0.008580   0.000105  -0.032392  -0.066186  -0.002255
     20      -0.009081  -0.019880  -0.004092   0.013808   0.030532   0.001466
     21       0.163814  -0.253089   0.000882   0.001911   0.003366   0.238347
     22      -0.328570   0.542462  -0.000535  -0.002674  -0.000968   0.643989
     23      -0.257416   0.445685   0.015554  -0.014199   0.000246  -0.723417
     24       0.007318   0.002676   0.005847  -0.003189   0.002183   0.007514
     25      -0.027661   0.026077  -0.003339   0.002646   0.002240   0.015244
     26       0.018214   0.000552   0.000836  -0.006157  -0.000409  -0.016344
     27      -0.000117   0.011181   0.002151  -0.005057   0.001502   0.004567
     28      -0.006573   0.001025   0.004733   0.007423   0.004164   0.002273
     29       0.014851  -0.013795   0.003403  -0.004126   0.000915   0.001160
     30      -0.000285  -0.002633  -0.974777   0.019925  -0.010576  -0.010009
     31      -0.005038  -0.003472   0.210620  -0.002352   0.004308   0.004267
     32       0.009654   0.002698  -0.040363  -0.006790  -0.004278  -0.007752
     33      -0.193100  -0.549306   0.007245   0.030757   0.036444  -0.016415
     34      -0.048962  -0.113762   0.001908  -0.023321  -0.000042   0.001036
     35       0.095033   0.251566  -0.006565   0.033168  -0.001099   0.005183
     36      -0.561809  -0.092457   0.009975   0.508785   0.212756  -0.001453
     37       0.299245   0.088462   0.014968   0.683228   0.318555  -0.009599
     38      -0.309002  -0.094660  -0.008892  -0.286928  -0.140637   0.004879
     39      -0.381537  -0.146222   0.018922   0.222601  -0.525373  -0.009430
     40      -0.310651  -0.111526  -0.011883  -0.288672   0.594983  -0.002563
     41       0.047000  -0.005521   0.006880   0.229678  -0.442605   0.003551


-----------
IR SPECTRUM
-----------

 Mode    freq (cm**-1)   T**2         TX         TY         TZ
-------------------------------------------------------------------
  32:       911.40    2.888954  (  1.532021  -0.678750   0.284897)
  33:      1051.30   50.940807  ( -0.265601   0.611090   7.106112)
  34:      1713.96    4.784404  ( -0.555685  -0.866990  -1.929753)
  35:      2011.21   18.398135  ( -3.647421   0.645928   2.162690)
  36:      2061.88   46.612503  ( -4.083727  -3.440457  -4.254284)
  37:      2169.57   72.523076  ( -4.406400   5.399456   4.894138)
  38:      3273.00   39.111752  ( -4.701842  -1.785913   3.716847)
  39:      3350.91   49.184778  (  6.497411   1.787772   1.942240)
  40:      3508.30   14.809237  ( -0.782084   3.078245  -2.173014)
  41:      4059.94  107.345079  ( -0.059549   3.456075  -9.767143)

The first frequency considered to be a vibration is 32
The total number of vibrations considered is 10


--------------------------
THERMOCHEMISTRY AT 298.15K
--------------------------

Temperature         ... 298.15 K
Pressure            ... 1.00 atm
Total Mass          ... 99.11 AMU

Throughout the following assumptions are being made:
  (1) The electronic state is orbitally nondegenerate
  (2) There are no thermally accessible electronically excited states
  (3) Hindered rotations indicated by low frequency modes) are not
      treated as such but are treated as vibrations and this may
      case some error
  (4) All equations used are the standard statistical mechanics
      equations for an ideal gas
  (5) All vibrations are strinctly harmonic


------------
INNER ENERGY
------------

The inner energy is: U= E(el) + E(ZPE) + E(vib) + E(rot) + E(trans)
    E(el)   - is the total energy from the electronic structure calculation
              = E(kin-el) + E(nuc-el) + E(el-el) + E(nuc-nuc)
    E(ZPE)  - the the zero temperature vibrational energy from the frequency calculation
    E(vib)  - the the finite temperature correction to E(ZPE) due to population
              of excietd vibrational states
    E(rot)  - is the rotational thermal energy
    E(trans)- is the translational thermal energy

Summary of contributions to the inner energy U:
Electronic energy                ...   -340.69845614 Eh
Zero point energy                ...      0.05492999 Eh      34.47 kcal/mol
Thermal vibrational correction   ...      0.00008520 Eh       0.05 kcal/mol
Thermal rotational correction    ...      0.00141627 Eh       0.89 kcal/mol
Thermal translational correction ...      0.00141627 Eh       0.89 kcal/mol
-----------------------------------------------------------------------
Total thermal energy                   -340.64060841 Eh


Summary of corrections to the electronic energy:
(perhaps to be used in another calculation)
Total thermal correction                  0.00291774 Eh       1.83 kcal/mol
Non-thermal (ZPE) correction              0.05492999 Eh      34.47 kcal/mol
-----------------------------------------------------------------------
Total correction                          0.05784774 Eh      36.30 kcal/mol


--------
ENTHALPY
--------

The enthalpy is H = U + kB*T
                kB is Boltzmann's constant
Total free energy                 ...   -340.64060841 Eh 
Thermal Enthalpy correction       ...      0.00094421 Eh       0.59 kcal/mol
-----------------------------------------------------------------------
Total Enthalpy                    ...   -340.63966420 Eh


-------
ENTROPY
-------

The entropy contributions are T*S = T*(S(el)+S(vib)+S(rot)+S(trans)
     S(el)   - electronic entropy
     S(vib)  - vibrational entropy
     S(rot)  - rotational entropy
     S(trans)- translational entropy
The entropies will be listed as mutliplied by the temperature to get
units of energy

Electronic entropy                ...      0.00000000 Eh      0.00 kcal/mol
Vibrational entropy               ...      0.00010319 Eh      0.06 kcal/mol
Rotational entropy                ...      0.01211355 Eh      7.60 kcal/mol
Translational entropy             ...      0.01885862 Eh     11.83 kcal/mol
-----------------------------------------------------------------------
Final entropy term                ...      0.03107537 Eh     19.50 kcal/mol


CAUTION: The rotational entropy is not quite correctly treated here
         because it includes a symmetry number that is not yet correctly
         implemented in ORCA!
For a nonlinear molecule the correct rotational entropy is:
    S(rot) = R*(ln(qrot/sn)+1.5)
    R    = 8.31441 J/mol/K = 1.987191683e-3 kcal/mol/K
    qrot = 249772.7118378
    sn is the rotational symmetry number. We have assumed 3 here
       if it is different for your molecule then you should correct
       the printed rotational entropy by manually evaluating the equation
       as given above

For convenience we print out the resulting values for sn=1 - 12:
 sn= 1  qrot/sn=  249772.7118 T*S(rot)=     8.25 kcal/mol T*S(tot)=    20.15 kcal/mol
 sn= 2  qrot/sn=  124886.3559 T*S(rot)=     7.84 kcal/mol T*S(tot)=    19.74 kcal/mol
 sn= 3  qrot/sn=   83257.5706 T*S(rot)=     7.60 kcal/mol T*S(tot)=    19.50 kcal/mol
 sn= 4  qrot/sn=   62443.1780 T*S(rot)=     7.43 kcal/mol T*S(tot)=    19.33 kcal/mol
 sn= 5  qrot/sn=   49954.5424 T*S(rot)=     7.30 kcal/mol T*S(tot)=    19.20 kcal/mol
 sn= 6  qrot/sn=   41628.7853 T*S(rot)=     7.19 kcal/mol T*S(tot)=    19.09 kcal/mol
 sn= 7  qrot/sn=   35681.8160 T*S(rot)=     7.10 kcal/mol T*S(tot)=    19.00 kcal/mol
 sn= 8  qrot/sn=   31221.5890 T*S(rot)=     7.02 kcal/mol T*S(tot)=    18.92 kcal/mol
 sn= 9  qrot/sn=   27752.5235 T*S(rot)=     6.95 kcal/mol T*S(tot)=    18.85 kcal/mol
 sn=10  qrot/sn=   24977.2712 T*S(rot)=     6.89 kcal/mol T*S(tot)=    18.79 kcal/mol
 sn=11  qrot/sn=   22706.6102 T*S(rot)=     6.83 kcal/mol T*S(tot)=    18.73 kcal/mol
 sn=12  qrot/sn=   20814.3927 T*S(rot)=     6.78 kcal/mol T*S(tot)=    18.68 kcal/mol


-------------------
GIBBS FREE ENTHALPY
-------------------

The Gibbs free enthalpy is G = H - T*S

Total enthalpy                    ...   -340.63966420 Eh 
Total entropy correction          ...     -0.03107537 Eh    -19.50 kcal/mol
-----------------------------------------------------------------------
Final Gibbs free enthalpy         ...   -340.67073956 Eh

For completeness - the Gibbs free enthalpy minus the electronic energy
G-E(el)                           ...      0.02771658 Eh     17.39 kcal/mol


Timings for individual modules:

Sum of individual times         ...     2461.277 sec (=  41.021 min)
GTO integral calculation        ...       21.101 sec (=   0.352 min)   0.9 %
SCF iterations                  ...      528.055 sec (=   8.801 min)  21.5 %
SCF Gradient evaluation         ...      270.845 sec (=   4.514 min)  11.0 %
Geometry relaxation             ...        0.437 sec (=   0.007 min)   0.0 %
Analytical frequency calculation...     1640.839 sec (=  27.347 min)  66.7 %
                             ****ORCA TERMINATED NORMALLY****
TOTAL RUN TIME: 0 days 0 hours 41 minutes 3 seconds 25 msec
